
     Program PWSCF v.7.3.1 starts on 14Jun2024 at 23:14:15 

     This program is part of the open-source Quantum ESPRESSO suite
     for quantum simulation of materials; please cite
         "P. Giannozzi et al., J. Phys.:Condens. Matter 21 395502 (2009);
         "P. Giannozzi et al., J. Phys.:Condens. Matter 29 465901 (2017);
         "P. Giannozzi et al., J. Chem. Phys. 152 154105 (2020);
          URL http://www.quantum-espresso.org", 
     in publications or presentations arising from this work. More details at
     http://www.quantum-espresso.org/quote

     Parallel version (MPI & OpenMP), running on      24 processor cores
     Number of MPI processes:                 1
     Threads/MPI process:                    24

     MPI processes distributed on     1 nodes
     5196 MiB available memory on the printing compute node when the environment starts

     Waiting for input...
     Reading input from standard input

     Current dimensions of program PWSCF are:
     Max number of different atomic species (ntypx) = 10
     Max number of k-points (npk) =  40000
     Max angular momentum in pseudopotentials (lmaxx) =  4
     file O.pbe-n-kjpaw_psl.0.1.UPF: wavefunction(s)  2P renormalized
     Message from routine setup:
     using ibrav=0 with symmetry is DISCOURAGED, use correct ibrav instead

     Subspace diagonalization in iterative solution of the eigenvalue problem:
     a serial algorithm will be used


     G-vector sticks info
     --------------------
     sticks:   dense  smooth     PW     G-vecs:    dense   smooth      PW
     Sum        1033     513    163                43199    15273    2887

     Using Slab Decomposition



     bravais-lattice index     =            0
     lattice parameter (alat)  =       6.1180  a.u.
     unit-cell volume          =     319.8198 (a.u.)^3
     number of atoms/cell      =            4
     number of atomic types    =            2
     number of electrons       =        52.00
     number of Kohn-Sham states=           31
     kinetic-energy cutoff     =      50.0000  Ry
     charge density cutoff     =     400.0000  Ry
     scf convergence threshold =      2.0E-08
     mixing beta               =       0.4000
     number of iterations used =            8  plain     mixing
     Exchange-correlation= SLA  PW   PBE  PBE
                           (   1   4   3   4   0   0   0)

     celldm(1)=   6.118013  celldm(2)=   0.000000  celldm(3)=   0.000000
     celldm(4)=   0.000000  celldm(5)=   0.000000  celldm(6)=   0.000000

     crystal axes: (cart. coord. in units of alat)
               a(1) = (   0.999950   0.010000   0.000000 )  
               a(2) = (  -0.491315   0.860982   0.000000 )  
               a(3) = (   0.000000   0.000000   1.612985 )  

     reciprocal axes: (cart. coord. in units 2 pi/alat)
               b(1) = (  0.994376  0.567435 -0.000000 )  
               b(2) = ( -0.011549  1.154874  0.000000 )  
               b(3) = (  0.000000 -0.000000  0.619968 )  


     PseudoPot. # 1 for O  read from file:
     ../SSSP_1.3.0_PBE_efficiency/O.pbe-n-kjpaw_psl.0.1.UPF
     MD5 check sum: 0234752ac141de4415c5fc33072bef88
     Pseudo is Projector augmented-wave + core cor, Zval =  6.0
     Generated using "atomic" code by A. Dal Corso  v.5.0.99 svn rev. 10869
     Shape of augmentation charge: BESSEL
     Using radial grid of 1095 points,  4 beta functions with: 
                l(1) =   0
                l(2) =   0
                l(3) =   1
                l(4) =   1
     Q(r) pseudized with 0 coefficients 


     PseudoPot. # 2 for Zn read from file:
     ../SSSP_1.3.0_PBE_efficiency/Zn_pbe_v1.uspp.F.UPF
     MD5 check sum: df62231357ef9e81f77b2b3087fa5675
     Pseudo is Ultrasoft, Zval = 20.0
     Generated by new atomic code, or converted to UPF format
     Using radial grid of  943 points,  6 beta functions with: 
                l(1) =   0
                l(2) =   0
                l(3) =   1
                l(4) =   1
                l(5) =   2
                l(6) =   2
     Q(r) pseudized with  8 coefficients,  rinner =    1.100   1.100   1.100
                                                       1.100   1.100

     atomic species   valence    mass     pseudopotential
     O                 6.00    15.99940     O ( 1.00)
     Zn               20.00    65.38000     Zn( 1.00)

      2 Sym. Ops. (no inversion) found ( 1 have fractional translation)


                                    s                        frac. trans.

      isym =  1     identity                                     

 cryst.   s( 1) = (     1          0          0      )
                  (     0          1          0      )
                  (     0          0          1      )

 cart.    s( 1) = (  1.0000000  0.0000000  0.0000000 )
                  (  0.0000000  1.0000000  0.0000000 )
                  (  0.0000000  0.0000000  1.0000000 )


      isym =  2     180 deg rotation - cart. axis [0,0,1]        

 cryst.   s( 2) = (    -1          0          0      )    f =(  0.0000000 )
                  (     0         -1          0      )       (  0.0000000 )
                  (     0          0          1      )       (  0.5000000 )

 cart.    s( 2) = ( -1.0000000  0.0000000  0.0000000 )    f =( -0.0000000 )
                  ( -0.0000000 -1.0000000  0.0000000 )       (  0.0000000 )
                  (  0.0000000  0.0000000  1.0000000 )       (  0.8064927 )


   Cartesian axes

     site n.     atom                  positions (alat units)
         1        Zn     tau(   1) = (   0.5028616   0.2936604   0.8074471  )
         2        Zn     tau(   2) = (   0.0057732   0.5773214   0.0009544  )
         3        O      tau(   3) = (   0.5028616   0.2936604   1.4189729  )
         4        O      tau(   4) = (   0.0057732   0.5773214   0.6124801  )

   Crystallographic axes

     site n.     atom                  positions (cryst. coord.)
         1        Zn     tau(   1) = (  0.6666667  0.3333333  0.5005917  )
         2        Zn     tau(   2) = (  0.3333333  0.6666667  0.0005917  )
         3        O      tau(   3) = (  0.6666667  0.3333333  0.8797183  )
         4        O      tau(   4) = (  0.3333333  0.6666667  0.3797183  )

     number of k points=   370  Marzari-Vanderbilt smearing, width (Ry)=  0.0147
                       cart. coord. in units 2pi/alat
        k(    1) = (   0.0000000   0.0000000   0.0000000), wk =   0.0017361
        k(    2) = (   0.0000000   0.0000000   0.0774960), wk =   0.0034722
        k(    3) = (   0.0000000   0.0000000   0.1549921), wk =   0.0034722
        k(    4) = (   0.0000000   0.0000000   0.2324881), wk =   0.0034722
        k(    5) = (   0.0000000   0.0000000  -0.3099842), wk =   0.0017361
        k(    6) = (  -0.0009624   0.0962395   0.0000000), wk =   0.0034722
        k(    7) = (  -0.0009624   0.0962395   0.0774960), wk =   0.0069444
        k(    8) = (  -0.0009624   0.0962395   0.1549921), wk =   0.0069444
        k(    9) = (  -0.0009624   0.0962395   0.2324881), wk =   0.0069444
        k(   10) = (  -0.0009624   0.0962395  -0.3099842), wk =   0.0034722
        k(   11) = (  -0.0019248   0.1924790   0.0000000), wk =   0.0034722
        k(   12) = (  -0.0019248   0.1924790   0.0774960), wk =   0.0069444
        k(   13) = (  -0.0019248   0.1924790   0.1549921), wk =   0.0069444
        k(   14) = (  -0.0019248   0.1924790   0.2324881), wk =   0.0069444
        k(   15) = (  -0.0019248   0.1924790  -0.3099842), wk =   0.0034722
        k(   16) = (  -0.0028872   0.2887184   0.0000000), wk =   0.0034722
        k(   17) = (  -0.0028872   0.2887184   0.0774960), wk =   0.0069444
        k(   18) = (  -0.0028872   0.2887184   0.1549921), wk =   0.0069444
        k(   19) = (  -0.0028872   0.2887184   0.2324881), wk =   0.0069444
        k(   20) = (  -0.0028872   0.2887184  -0.3099842), wk =   0.0034722
        k(   21) = (  -0.0038496   0.3849579   0.0000000), wk =   0.0034722
        k(   22) = (  -0.0038496   0.3849579   0.0774960), wk =   0.0069444
        k(   23) = (  -0.0038496   0.3849579   0.1549921), wk =   0.0069444
        k(   24) = (  -0.0038496   0.3849579   0.2324881), wk =   0.0069444
        k(   25) = (  -0.0038496   0.3849579  -0.3099842), wk =   0.0034722
        k(   26) = (  -0.0048120   0.4811974   0.0000000), wk =   0.0034722
        k(   27) = (  -0.0048120   0.4811974   0.0774960), wk =   0.0069444
        k(   28) = (  -0.0048120   0.4811974   0.1549921), wk =   0.0069444
        k(   29) = (  -0.0048120   0.4811974   0.2324881), wk =   0.0069444
        k(   30) = (  -0.0048120   0.4811974  -0.3099842), wk =   0.0034722
        k(   31) = (   0.0057744  -0.5774369   0.0000000), wk =   0.0017361
        k(   32) = (   0.0057744  -0.5774369   0.0774960), wk =   0.0034722
        k(   33) = (   0.0057744  -0.5774369   0.1549921), wk =   0.0034722
        k(   34) = (   0.0057744  -0.5774369   0.2324881), wk =   0.0034722
        k(   35) = (   0.0057744  -0.5774369  -0.3099842), wk =   0.0017361
        k(   36) = (   0.0828646   0.0472863   0.0000000), wk =   0.0034722
        k(   37) = (   0.0828646   0.0472863   0.0774960), wk =   0.0069444
        k(   38) = (   0.0828646   0.0472863   0.1549921), wk =   0.0069444
        k(   39) = (   0.0828646   0.0472863   0.2324881), wk =   0.0069444
        k(   40) = (   0.0828646   0.0472863  -0.3099842), wk =   0.0034722
        k(   41) = (   0.0819022   0.1435258   0.0000000), wk =   0.0034722
        k(   42) = (   0.0819022   0.1435258   0.0774960), wk =   0.0069444
        k(   43) = (   0.0819022   0.1435258   0.1549921), wk =   0.0069444
        k(   44) = (   0.0819022   0.1435258   0.2324881), wk =   0.0069444
        k(   45) = (   0.0819022   0.1435258  -0.3099842), wk =   0.0034722
        k(   46) = (   0.0809398   0.2397652   0.0000000), wk =   0.0034722
        k(   47) = (   0.0809398   0.2397652   0.0774960), wk =   0.0069444
        k(   48) = (   0.0809398   0.2397652   0.1549921), wk =   0.0069444
        k(   49) = (   0.0809398   0.2397652   0.2324881), wk =   0.0069444
        k(   50) = (   0.0809398   0.2397652  -0.3099842), wk =   0.0034722
        k(   51) = (   0.0799775   0.3360047   0.0000000), wk =   0.0034722
        k(   52) = (   0.0799775   0.3360047   0.0774960), wk =   0.0069444
        k(   53) = (   0.0799775   0.3360047   0.1549921), wk =   0.0069444
        k(   54) = (   0.0799775   0.3360047   0.2324881), wk =   0.0069444
        k(   55) = (   0.0799775   0.3360047  -0.3099842), wk =   0.0034722
        k(   56) = (   0.0790151   0.4322442   0.0000000), wk =   0.0034722
        k(   57) = (   0.0790151   0.4322442   0.0774960), wk =   0.0069444
        k(   58) = (   0.0790151   0.4322442   0.1549921), wk =   0.0069444
        k(   59) = (   0.0790151   0.4322442   0.2324881), wk =   0.0069444
        k(   60) = (   0.0790151   0.4322442  -0.3099842), wk =   0.0034722
        k(   61) = (   0.0780527   0.5284837   0.0000000), wk =   0.0034722
        k(   62) = (   0.0780527   0.5284837   0.0774960), wk =   0.0069444
        k(   63) = (   0.0780527   0.5284837   0.1549921), wk =   0.0069444
        k(   64) = (   0.0780527   0.5284837   0.2324881), wk =   0.0069444
        k(   65) = (   0.0780527   0.5284837  -0.3099842), wk =   0.0034722
        k(   66) = (   0.0886390  -0.5301506   0.0000000), wk =   0.0034722
        k(   67) = (   0.0886390  -0.5301506   0.0774960), wk =   0.0069444
        k(   68) = (   0.0886390  -0.5301506   0.1549921), wk =   0.0069444
        k(   69) = (   0.0886390  -0.5301506   0.2324881), wk =   0.0069444
        k(   70) = (   0.0886390  -0.5301506  -0.3099842), wk =   0.0034722
        k(   71) = (   0.0876766  -0.4339111   0.0000000), wk =   0.0034722
        k(   72) = (   0.0876766  -0.4339111   0.0774960), wk =   0.0069444
        k(   73) = (   0.0876766  -0.4339111   0.1549921), wk =   0.0069444
        k(   74) = (   0.0876766  -0.4339111   0.2324881), wk =   0.0069444
        k(   75) = (   0.0876766  -0.4339111  -0.3099842), wk =   0.0034722
        k(   76) = (   0.0867142  -0.3376716   0.0000000), wk =   0.0034722
        k(   77) = (   0.0867142  -0.3376716   0.0774960), wk =   0.0069444
        k(   78) = (   0.0867142  -0.3376716   0.1549921), wk =   0.0069444
        k(   79) = (   0.0867142  -0.3376716   0.2324881), wk =   0.0069444
        k(   80) = (   0.0867142  -0.3376716  -0.3099842), wk =   0.0034722
        k(   81) = (   0.0857518  -0.2414322   0.0000000), wk =   0.0034722
        k(   82) = (   0.0857518  -0.2414322   0.0774960), wk =   0.0069444
        k(   83) = (   0.0857518  -0.2414322   0.1549921), wk =   0.0069444
        k(   84) = (   0.0857518  -0.2414322   0.2324881), wk =   0.0069444
        k(   85) = (   0.0857518  -0.2414322  -0.3099842), wk =   0.0034722
        k(   86) = (   0.0847894  -0.1451927   0.0000000), wk =   0.0034722
        k(   87) = (   0.0847894  -0.1451927   0.0774960), wk =   0.0069444
        k(   88) = (   0.0847894  -0.1451927   0.1549921), wk =   0.0069444
        k(   89) = (   0.0847894  -0.1451927   0.2324881), wk =   0.0069444
        k(   90) = (   0.0847894  -0.1451927  -0.3099842), wk =   0.0034722
        k(   91) = (   0.0838270  -0.0489532   0.0000000), wk =   0.0034722
        k(   92) = (   0.0838270  -0.0489532   0.0774960), wk =   0.0069444
        k(   93) = (   0.0838270  -0.0489532   0.1549921), wk =   0.0069444
        k(   94) = (   0.0838270  -0.0489532   0.2324881), wk =   0.0069444
        k(   95) = (   0.0838270  -0.0489532  -0.3099842), wk =   0.0034722
        k(   96) = (   0.1657293   0.0945726   0.0000000), wk =   0.0034722
        k(   97) = (   0.1657293   0.0945726   0.0774960), wk =   0.0069444
        k(   98) = (   0.1657293   0.0945726   0.1549921), wk =   0.0069444
        k(   99) = (   0.1657293   0.0945726   0.2324881), wk =   0.0069444
        k(  100) = (   0.1657293   0.0945726  -0.3099842), wk =   0.0034722
        k(  101) = (   0.1647669   0.1908120   0.0000000), wk =   0.0034722
        k(  102) = (   0.1647669   0.1908120   0.0774960), wk =   0.0069444
        k(  103) = (   0.1647669   0.1908120   0.1549921), wk =   0.0069444
        k(  104) = (   0.1647669   0.1908120   0.2324881), wk =   0.0069444
        k(  105) = (   0.1647669   0.1908120  -0.3099842), wk =   0.0034722
        k(  106) = (   0.1638045   0.2870515   0.0000000), wk =   0.0034722
        k(  107) = (   0.1638045   0.2870515   0.0774960), wk =   0.0069444
        k(  108) = (   0.1638045   0.2870515   0.1549921), wk =   0.0069444
        k(  109) = (   0.1638045   0.2870515   0.2324881), wk =   0.0069444
        k(  110) = (   0.1638045   0.2870515  -0.3099842), wk =   0.0034722
        k(  111) = (   0.1628421   0.3832910   0.0000000), wk =   0.0034722
        k(  112) = (   0.1628421   0.3832910   0.0774960), wk =   0.0069444
        k(  113) = (   0.1628421   0.3832910   0.1549921), wk =   0.0069444
        k(  114) = (   0.1628421   0.3832910   0.2324881), wk =   0.0069444
        k(  115) = (   0.1628421   0.3832910  -0.3099842), wk =   0.0034722
        k(  116) = (   0.1618797   0.4795305   0.0000000), wk =   0.0034722
        k(  117) = (   0.1618797   0.4795305   0.0774960), wk =   0.0069444
        k(  118) = (   0.1618797   0.4795305   0.1549921), wk =   0.0069444
        k(  119) = (   0.1618797   0.4795305   0.2324881), wk =   0.0069444
        k(  120) = (   0.1618797   0.4795305  -0.3099842), wk =   0.0034722
        k(  121) = (   0.1609173   0.5757700   0.0000000), wk =   0.0034722
        k(  122) = (   0.1609173   0.5757700   0.0774960), wk =   0.0069444
        k(  123) = (   0.1609173   0.5757700   0.1549921), wk =   0.0069444
        k(  124) = (   0.1609173   0.5757700   0.2324881), wk =   0.0069444
        k(  125) = (   0.1609173   0.5757700  -0.3099842), wk =   0.0034722
        k(  126) = (   0.1715036  -0.4828643   0.0000000), wk =   0.0034722
        k(  127) = (   0.1715036  -0.4828643   0.0774960), wk =   0.0069444
        k(  128) = (   0.1715036  -0.4828643   0.1549921), wk =   0.0069444
        k(  129) = (   0.1715036  -0.4828643   0.2324881), wk =   0.0069444
        k(  130) = (   0.1715036  -0.4828643  -0.3099842), wk =   0.0034722
        k(  131) = (   0.1705412  -0.3866248   0.0000000), wk =   0.0034722
        k(  132) = (   0.1705412  -0.3866248   0.0774960), wk =   0.0069444
        k(  133) = (   0.1705412  -0.3866248   0.1549921), wk =   0.0069444
        k(  134) = (   0.1705412  -0.3866248   0.2324881), wk =   0.0069444
        k(  135) = (   0.1705412  -0.3866248  -0.3099842), wk =   0.0034722
        k(  136) = (   0.1695789  -0.2903854   0.0000000), wk =   0.0034722
        k(  137) = (   0.1695789  -0.2903854   0.0774960), wk =   0.0069444
        k(  138) = (   0.1695789  -0.2903854   0.1549921), wk =   0.0069444
        k(  139) = (   0.1695789  -0.2903854   0.2324881), wk =   0.0069444
        k(  140) = (   0.1695789  -0.2903854  -0.3099842), wk =   0.0034722
        k(  141) = (   0.1686165  -0.1941459   0.0000000), wk =   0.0034722
        k(  142) = (   0.1686165  -0.1941459   0.0774960), wk =   0.0069444
        k(  143) = (   0.1686165  -0.1941459   0.1549921), wk =   0.0069444
        k(  144) = (   0.1686165  -0.1941459   0.2324881), wk =   0.0069444
        k(  145) = (   0.1686165  -0.1941459  -0.3099842), wk =   0.0034722
        k(  146) = (   0.1676541  -0.0979064   0.0000000), wk =   0.0034722
        k(  147) = (   0.1676541  -0.0979064   0.0774960), wk =   0.0069444
        k(  148) = (   0.1676541  -0.0979064   0.1549921), wk =   0.0069444
        k(  149) = (   0.1676541  -0.0979064   0.2324881), wk =   0.0069444
        k(  150) = (   0.1676541  -0.0979064  -0.3099842), wk =   0.0034722
        k(  151) = (   0.1666917  -0.0016669   0.0000000), wk =   0.0034722
        k(  152) = (   0.1666917  -0.0016669   0.0774960), wk =   0.0069444
        k(  153) = (   0.1666917  -0.0016669   0.1549921), wk =   0.0069444
        k(  154) = (   0.1666917  -0.0016669   0.2324881), wk =   0.0069444
        k(  155) = (   0.1666917  -0.0016669  -0.3099842), wk =   0.0034722
        k(  156) = (   0.2485939   0.1418588   0.0000000), wk =   0.0034722
        k(  157) = (   0.2485939   0.1418588   0.0774960), wk =   0.0069444
        k(  158) = (   0.2485939   0.1418588   0.1549921), wk =   0.0069444
        k(  159) = (   0.2485939   0.1418588   0.2324881), wk =   0.0069444
        k(  160) = (   0.2485939   0.1418588  -0.3099842), wk =   0.0034722
        k(  161) = (   0.2476315   0.2380983   0.0000000), wk =   0.0034722
        k(  162) = (   0.2476315   0.2380983   0.0774960), wk =   0.0069444
        k(  163) = (   0.2476315   0.2380983   0.1549921), wk =   0.0069444
        k(  164) = (   0.2476315   0.2380983   0.2324881), wk =   0.0069444
        k(  165) = (   0.2476315   0.2380983  -0.3099842), wk =   0.0034722
        k(  166) = (   0.2466691   0.3343378   0.0000000), wk =   0.0034722
        k(  167) = (   0.2466691   0.3343378   0.0774960), wk =   0.0069444
        k(  168) = (   0.2466691   0.3343378   0.1549921), wk =   0.0069444
        k(  169) = (   0.2466691   0.3343378   0.2324881), wk =   0.0069444
        k(  170) = (   0.2466691   0.3343378  -0.3099842), wk =   0.0034722
        k(  171) = (   0.2457067   0.4305773   0.0000000), wk =   0.0034722
        k(  172) = (   0.2457067   0.4305773   0.0774960), wk =   0.0069444
        k(  173) = (   0.2457067   0.4305773   0.1549921), wk =   0.0069444
        k(  174) = (   0.2457067   0.4305773   0.2324881), wk =   0.0069444
        k(  175) = (   0.2457067   0.4305773  -0.3099842), wk =   0.0034722
        k(  176) = (   0.2447443   0.5268168   0.0000000), wk =   0.0034722
        k(  177) = (   0.2447443   0.5268168   0.0774960), wk =   0.0069444
        k(  178) = (   0.2447443   0.5268168   0.1549921), wk =   0.0069444
        k(  179) = (   0.2447443   0.5268168   0.2324881), wk =   0.0069444
        k(  180) = (   0.2447443   0.5268168  -0.3099842), wk =   0.0034722
        k(  181) = (   0.2437819   0.6230562   0.0000000), wk =   0.0034722
        k(  182) = (   0.2437819   0.6230562   0.0774960), wk =   0.0069444
        k(  183) = (   0.2437819   0.6230562   0.1549921), wk =   0.0069444
        k(  184) = (   0.2437819   0.6230562   0.2324881), wk =   0.0069444
        k(  185) = (   0.2437819   0.6230562  -0.3099842), wk =   0.0034722
        k(  186) = (   0.2543683  -0.4355780   0.0000000), wk =   0.0034722
        k(  187) = (   0.2543683  -0.4355780   0.0774960), wk =   0.0069444
        k(  188) = (   0.2543683  -0.4355780   0.1549921), wk =   0.0069444
        k(  189) = (   0.2543683  -0.4355780   0.2324881), wk =   0.0069444
        k(  190) = (   0.2543683  -0.4355780  -0.3099842), wk =   0.0034722
        k(  191) = (   0.2534059  -0.3393386   0.0000000), wk =   0.0034722
        k(  192) = (   0.2534059  -0.3393386   0.0774960), wk =   0.0069444
        k(  193) = (   0.2534059  -0.3393386   0.1549921), wk =   0.0069444
        k(  194) = (   0.2534059  -0.3393386   0.2324881), wk =   0.0069444
        k(  195) = (   0.2534059  -0.3393386  -0.3099842), wk =   0.0034722
        k(  196) = (   0.2524435  -0.2430991   0.0000000), wk =   0.0034722
        k(  197) = (   0.2524435  -0.2430991   0.0774960), wk =   0.0069444
        k(  198) = (   0.2524435  -0.2430991   0.1549921), wk =   0.0069444
        k(  199) = (   0.2524435  -0.2430991   0.2324881), wk =   0.0069444
        k(  200) = (   0.2524435  -0.2430991  -0.3099842), wk =   0.0034722
        k(  201) = (   0.2514811  -0.1468596   0.0000000), wk =   0.0034722
        k(  202) = (   0.2514811  -0.1468596   0.0774960), wk =   0.0069444
        k(  203) = (   0.2514811  -0.1468596   0.1549921), wk =   0.0069444
        k(  204) = (   0.2514811  -0.1468596   0.2324881), wk =   0.0069444
        k(  205) = (   0.2514811  -0.1468596  -0.3099842), wk =   0.0034722
        k(  206) = (   0.2505187  -0.0506201   0.0000000), wk =   0.0034722
        k(  207) = (   0.2505187  -0.0506201   0.0774960), wk =   0.0069444
        k(  208) = (   0.2505187  -0.0506201   0.1549921), wk =   0.0069444
        k(  209) = (   0.2505187  -0.0506201   0.2324881), wk =   0.0069444
        k(  210) = (   0.2505187  -0.0506201  -0.3099842), wk =   0.0034722
        k(  211) = (   0.2495563   0.0456194   0.0000000), wk =   0.0034722
        k(  212) = (   0.2495563   0.0456194   0.0774960), wk =   0.0069444
        k(  213) = (   0.2495563   0.0456194   0.1549921), wk =   0.0069444
        k(  214) = (   0.2495563   0.0456194   0.2324881), wk =   0.0069444
        k(  215) = (   0.2495563   0.0456194  -0.3099842), wk =   0.0034722
        k(  216) = (   0.3314585   0.1891451   0.0000000), wk =   0.0034722
        k(  217) = (   0.3314585   0.1891451   0.0774960), wk =   0.0069444
        k(  218) = (   0.3314585   0.1891451   0.1549921), wk =   0.0069444
        k(  219) = (   0.3314585   0.1891451   0.2324881), wk =   0.0069444
        k(  220) = (   0.3314585   0.1891451  -0.3099842), wk =   0.0034722
        k(  221) = (   0.3304962   0.2853846   0.0000000), wk =   0.0034722
        k(  222) = (   0.3304962   0.2853846   0.0774960), wk =   0.0069444
        k(  223) = (   0.3304962   0.2853846   0.1549921), wk =   0.0069444
        k(  224) = (   0.3304962   0.2853846   0.2324881), wk =   0.0069444
        k(  225) = (   0.3304962   0.2853846  -0.3099842), wk =   0.0034722
        k(  226) = (   0.3295338   0.3816241   0.0000000), wk =   0.0034722
        k(  227) = (   0.3295338   0.3816241   0.0774960), wk =   0.0069444
        k(  228) = (   0.3295338   0.3816241   0.1549921), wk =   0.0069444
        k(  229) = (   0.3295338   0.3816241   0.2324881), wk =   0.0069444
        k(  230) = (   0.3295338   0.3816241  -0.3099842), wk =   0.0034722
        k(  231) = (   0.3285714   0.4778636   0.0000000), wk =   0.0034722
        k(  232) = (   0.3285714   0.4778636   0.0774960), wk =   0.0069444
        k(  233) = (   0.3285714   0.4778636   0.1549921), wk =   0.0069444
        k(  234) = (   0.3285714   0.4778636   0.2324881), wk =   0.0069444
        k(  235) = (   0.3285714   0.4778636  -0.3099842), wk =   0.0034722
        k(  236) = (   0.3276090   0.5741030   0.0000000), wk =   0.0034722
        k(  237) = (   0.3276090   0.5741030   0.0774960), wk =   0.0069444
        k(  238) = (   0.3276090   0.5741030   0.1549921), wk =   0.0069444
        k(  239) = (   0.3276090   0.5741030   0.2324881), wk =   0.0069444
        k(  240) = (   0.3276090   0.5741030  -0.3099842), wk =   0.0034722
        k(  241) = (   0.3266466   0.6703425   0.0000000), wk =   0.0034722
        k(  242) = (   0.3266466   0.6703425   0.0774960), wk =   0.0069444
        k(  243) = (   0.3266466   0.6703425   0.1549921), wk =   0.0069444
        k(  244) = (   0.3266466   0.6703425   0.2324881), wk =   0.0069444
        k(  245) = (   0.3266466   0.6703425  -0.3099842), wk =   0.0034722
        k(  246) = (   0.3372329  -0.3882918   0.0000000), wk =   0.0034722
        k(  247) = (   0.3372329  -0.3882918   0.0774960), wk =   0.0069444
        k(  248) = (   0.3372329  -0.3882918   0.1549921), wk =   0.0069444
        k(  249) = (   0.3372329  -0.3882918   0.2324881), wk =   0.0069444
        k(  250) = (   0.3372329  -0.3882918  -0.3099842), wk =   0.0034722
        k(  251) = (   0.3362705  -0.2920523   0.0000000), wk =   0.0034722
        k(  252) = (   0.3362705  -0.2920523   0.0774960), wk =   0.0069444
        k(  253) = (   0.3362705  -0.2920523   0.1549921), wk =   0.0069444
        k(  254) = (   0.3362705  -0.2920523   0.2324881), wk =   0.0069444
        k(  255) = (   0.3362705  -0.2920523  -0.3099842), wk =   0.0034722
        k(  256) = (   0.3353081  -0.1958128   0.0000000), wk =   0.0034722
        k(  257) = (   0.3353081  -0.1958128   0.0774960), wk =   0.0069444
        k(  258) = (   0.3353081  -0.1958128   0.1549921), wk =   0.0069444
        k(  259) = (   0.3353081  -0.1958128   0.2324881), wk =   0.0069444
        k(  260) = (   0.3353081  -0.1958128  -0.3099842), wk =   0.0034722
        k(  261) = (   0.3343457  -0.0995733   0.0000000), wk =   0.0034722
        k(  262) = (   0.3343457  -0.0995733   0.0774960), wk =   0.0069444
        k(  263) = (   0.3343457  -0.0995733   0.1549921), wk =   0.0069444
        k(  264) = (   0.3343457  -0.0995733   0.2324881), wk =   0.0069444
        k(  265) = (   0.3343457  -0.0995733  -0.3099842), wk =   0.0034722
        k(  266) = (   0.3333833  -0.0033338   0.0000000), wk =   0.0034722
        k(  267) = (   0.3333833  -0.0033338   0.0774960), wk =   0.0069444
        k(  268) = (   0.3333833  -0.0033338   0.1549921), wk =   0.0069444
        k(  269) = (   0.3333833  -0.0033338   0.2324881), wk =   0.0069444
        k(  270) = (   0.3333833  -0.0033338  -0.3099842), wk =   0.0034722
        k(  271) = (   0.3324209   0.0929056   0.0000000), wk =   0.0034722
        k(  272) = (   0.3324209   0.0929056   0.0774960), wk =   0.0069444
        k(  273) = (   0.3324209   0.0929056   0.1549921), wk =   0.0069444
        k(  274) = (   0.3324209   0.0929056   0.2324881), wk =   0.0069444
        k(  275) = (   0.3324209   0.0929056  -0.3099842), wk =   0.0034722
        k(  276) = (   0.4143232   0.2364314   0.0000000), wk =   0.0034722
        k(  277) = (   0.4143232   0.2364314   0.0774960), wk =   0.0069444
        k(  278) = (   0.4143232   0.2364314   0.1549921), wk =   0.0069444
        k(  279) = (   0.4143232   0.2364314   0.2324881), wk =   0.0069444
        k(  280) = (   0.4143232   0.2364314  -0.3099842), wk =   0.0034722
        k(  281) = (   0.4133608   0.3326709   0.0000000), wk =   0.0034722
        k(  282) = (   0.4133608   0.3326709   0.0774960), wk =   0.0069444
        k(  283) = (   0.4133608   0.3326709   0.1549921), wk =   0.0069444
        k(  284) = (   0.4133608   0.3326709   0.2324881), wk =   0.0069444
        k(  285) = (   0.4133608   0.3326709  -0.3099842), wk =   0.0034722
        k(  286) = (   0.4123984   0.4289104   0.0000000), wk =   0.0034722
        k(  287) = (   0.4123984   0.4289104   0.0774960), wk =   0.0069444
        k(  288) = (   0.4123984   0.4289104   0.1549921), wk =   0.0069444
        k(  289) = (   0.4123984   0.4289104   0.2324881), wk =   0.0069444
        k(  290) = (   0.4123984   0.4289104  -0.3099842), wk =   0.0034722
        k(  291) = (   0.4114360   0.5251498   0.0000000), wk =   0.0034722
        k(  292) = (   0.4114360   0.5251498   0.0774960), wk =   0.0069444
        k(  293) = (   0.4114360   0.5251498   0.1549921), wk =   0.0069444
        k(  294) = (   0.4114360   0.5251498   0.2324881), wk =   0.0069444
        k(  295) = (   0.4114360   0.5251498  -0.3099842), wk =   0.0034722
        k(  296) = (   0.4104736   0.6213893   0.0000000), wk =   0.0034722
        k(  297) = (   0.4104736   0.6213893   0.0774960), wk =   0.0069444
        k(  298) = (   0.4104736   0.6213893   0.1549921), wk =   0.0069444
        k(  299) = (   0.4104736   0.6213893   0.2324881), wk =   0.0069444
        k(  300) = (   0.4104736   0.6213893  -0.3099842), wk =   0.0034722
        k(  301) = (   0.4095112   0.7176288   0.0000000), wk =   0.0034722
        k(  302) = (   0.4095112   0.7176288   0.0774960), wk =   0.0069444
        k(  303) = (   0.4095112   0.7176288   0.1549921), wk =   0.0069444
        k(  304) = (   0.4095112   0.7176288   0.2324881), wk =   0.0069444
        k(  305) = (   0.4095112   0.7176288  -0.3099842), wk =   0.0034722
        k(  306) = (   0.4200976  -0.3410055   0.0000000), wk =   0.0034722
        k(  307) = (   0.4200976  -0.3410055   0.0774960), wk =   0.0069444
        k(  308) = (   0.4200976  -0.3410055   0.1549921), wk =   0.0069444
        k(  309) = (   0.4200976  -0.3410055   0.2324881), wk =   0.0069444
        k(  310) = (   0.4200976  -0.3410055  -0.3099842), wk =   0.0034722
        k(  311) = (   0.4191352  -0.2447660   0.0000000), wk =   0.0034722
        k(  312) = (   0.4191352  -0.2447660   0.0774960), wk =   0.0069444
        k(  313) = (   0.4191352  -0.2447660   0.1549921), wk =   0.0069444
        k(  314) = (   0.4191352  -0.2447660   0.2324881), wk =   0.0069444
        k(  315) = (   0.4191352  -0.2447660  -0.3099842), wk =   0.0034722
        k(  316) = (   0.4181728  -0.1485265   0.0000000), wk =   0.0034722
        k(  317) = (   0.4181728  -0.1485265   0.0774960), wk =   0.0069444
        k(  318) = (   0.4181728  -0.1485265   0.1549921), wk =   0.0069444
        k(  319) = (   0.4181728  -0.1485265   0.2324881), wk =   0.0069444
        k(  320) = (   0.4181728  -0.1485265  -0.3099842), wk =   0.0034722
        k(  321) = (   0.4172104  -0.0522870   0.0000000), wk =   0.0034722
        k(  322) = (   0.4172104  -0.0522870   0.0774960), wk =   0.0069444
        k(  323) = (   0.4172104  -0.0522870   0.1549921), wk =   0.0069444
        k(  324) = (   0.4172104  -0.0522870   0.2324881), wk =   0.0069444
        k(  325) = (   0.4172104  -0.0522870  -0.3099842), wk =   0.0034722
        k(  326) = (   0.4162480   0.0439524   0.0000000), wk =   0.0034722
        k(  327) = (   0.4162480   0.0439524   0.0774960), wk =   0.0069444
        k(  328) = (   0.4162480   0.0439524   0.1549921), wk =   0.0069444
        k(  329) = (   0.4162480   0.0439524   0.2324881), wk =   0.0069444
        k(  330) = (   0.4162480   0.0439524  -0.3099842), wk =   0.0034722
        k(  331) = (   0.4152856   0.1401919   0.0000000), wk =   0.0034722
        k(  332) = (   0.4152856   0.1401919   0.0774960), wk =   0.0069444
        k(  333) = (   0.4152856   0.1401919   0.1549921), wk =   0.0069444
        k(  334) = (   0.4152856   0.1401919   0.2324881), wk =   0.0069444
        k(  335) = (   0.4152856   0.1401919  -0.3099842), wk =   0.0034722
        k(  336) = (  -0.4971878  -0.2837177   0.0000000), wk =   0.0017361
        k(  337) = (  -0.4971878  -0.2837177   0.0774960), wk =   0.0034722
        k(  338) = (  -0.4971878  -0.2837177   0.1549921), wk =   0.0034722
        k(  339) = (  -0.4971878  -0.2837177   0.2324881), wk =   0.0034722
        k(  340) = (  -0.4971878  -0.2837177  -0.3099842), wk =   0.0017361
        k(  341) = (  -0.4981502  -0.1874782   0.0000000), wk =   0.0034722
        k(  342) = (  -0.4981502  -0.1874782   0.0774960), wk =   0.0069444
        k(  343) = (  -0.4981502  -0.1874782   0.1549921), wk =   0.0069444
        k(  344) = (  -0.4981502  -0.1874782   0.2324881), wk =   0.0069444
        k(  345) = (  -0.4981502  -0.1874782  -0.3099842), wk =   0.0034722
        k(  346) = (  -0.4991126  -0.0912387   0.0000000), wk =   0.0034722
        k(  347) = (  -0.4991126  -0.0912387   0.0774960), wk =   0.0069444
        k(  348) = (  -0.4991126  -0.0912387   0.1549921), wk =   0.0069444
        k(  349) = (  -0.4991126  -0.0912387   0.2324881), wk =   0.0069444
        k(  350) = (  -0.4991126  -0.0912387  -0.3099842), wk =   0.0034722
        k(  351) = (  -0.5000750   0.0050008   0.0000000), wk =   0.0034722
        k(  352) = (  -0.5000750   0.0050008   0.0774960), wk =   0.0069444
        k(  353) = (  -0.5000750   0.0050008   0.1549921), wk =   0.0069444
        k(  354) = (  -0.5000750   0.0050008   0.2324881), wk =   0.0069444
        k(  355) = (  -0.5000750   0.0050008  -0.3099842), wk =   0.0034722
        k(  356) = (  -0.5010374   0.1012402   0.0000000), wk =   0.0034722
        k(  357) = (  -0.5010374   0.1012402   0.0774960), wk =   0.0069444
        k(  358) = (  -0.5010374   0.1012402   0.1549921), wk =   0.0069444
        k(  359) = (  -0.5010374   0.1012402   0.2324881), wk =   0.0069444
        k(  360) = (  -0.5010374   0.1012402  -0.3099842), wk =   0.0034722
        k(  361) = (  -0.5019998   0.1974797   0.0000000), wk =   0.0034722
        k(  362) = (  -0.5019998   0.1974797   0.0774960), wk =   0.0069444
        k(  363) = (  -0.5019998   0.1974797   0.1549921), wk =   0.0069444
        k(  364) = (  -0.5019998   0.1974797   0.2324881), wk =   0.0069444
        k(  365) = (  -0.5019998   0.1974797  -0.3099842), wk =   0.0034722
        k(  366) = (  -0.4914135  -0.8611546   0.0000000), wk =   0.0017361
        k(  367) = (  -0.4914135  -0.8611546   0.0774960), wk =   0.0034722
        k(  368) = (  -0.4914135  -0.8611546   0.1549921), wk =   0.0034722
        k(  369) = (  -0.4914135  -0.8611546   0.2324881), wk =   0.0034722
        k(  370) = (  -0.4914135  -0.8611546  -0.3099842), wk =   0.0017361

                       cryst. coord.
        k(    1) = (   0.0000000   0.0000000   0.0000000), wk =   0.0017361
        k(    2) = (   0.0000000   0.0000000   0.1250000), wk =   0.0034722
        k(    3) = (   0.0000000   0.0000000   0.2500000), wk =   0.0034722
        k(    4) = (   0.0000000   0.0000000   0.3750000), wk =   0.0034722
        k(    5) = (   0.0000000   0.0000000  -0.5000000), wk =   0.0017361
        k(    6) = (   0.0000000   0.0833333   0.0000000), wk =   0.0034722
        k(    7) = (   0.0000000   0.0833333   0.1250000), wk =   0.0069444
        k(    8) = (   0.0000000   0.0833333   0.2500000), wk =   0.0069444
        k(    9) = (   0.0000000   0.0833333   0.3750000), wk =   0.0069444
        k(   10) = (   0.0000000   0.0833333  -0.5000000), wk =   0.0034722
        k(   11) = (   0.0000000   0.1666667   0.0000000), wk =   0.0034722
        k(   12) = (   0.0000000   0.1666667   0.1250000), wk =   0.0069444
        k(   13) = (   0.0000000   0.1666667   0.2500000), wk =   0.0069444
        k(   14) = (   0.0000000   0.1666667   0.3750000), wk =   0.0069444
        k(   15) = (   0.0000000   0.1666667  -0.5000000), wk =   0.0034722
        k(   16) = (   0.0000000   0.2500000   0.0000000), wk =   0.0034722
        k(   17) = (   0.0000000   0.2500000   0.1250000), wk =   0.0069444
        k(   18) = (   0.0000000   0.2500000   0.2500000), wk =   0.0069444
        k(   19) = (   0.0000000   0.2500000   0.3750000), wk =   0.0069444
        k(   20) = (   0.0000000   0.2500000  -0.5000000), wk =   0.0034722
        k(   21) = (   0.0000000   0.3333333   0.0000000), wk =   0.0034722
        k(   22) = (   0.0000000   0.3333333   0.1250000), wk =   0.0069444
        k(   23) = (   0.0000000   0.3333333   0.2500000), wk =   0.0069444
        k(   24) = (   0.0000000   0.3333333   0.3750000), wk =   0.0069444
        k(   25) = (   0.0000000   0.3333333  -0.5000000), wk =   0.0034722
        k(   26) = (   0.0000000   0.4166667   0.0000000), wk =   0.0034722
        k(   27) = (   0.0000000   0.4166667   0.1250000), wk =   0.0069444
        k(   28) = (   0.0000000   0.4166667   0.2500000), wk =   0.0069444
        k(   29) = (   0.0000000   0.4166667   0.3750000), wk =   0.0069444
        k(   30) = (   0.0000000   0.4166667  -0.5000000), wk =   0.0034722
        k(   31) = (   0.0000000  -0.5000000   0.0000000), wk =   0.0017361
        k(   32) = (   0.0000000  -0.5000000   0.1250000), wk =   0.0034722
        k(   33) = (   0.0000000  -0.5000000   0.2500000), wk =   0.0034722
        k(   34) = (   0.0000000  -0.5000000   0.3750000), wk =   0.0034722
        k(   35) = (   0.0000000  -0.5000000  -0.5000000), wk =   0.0017361
        k(   36) = (   0.0833333   0.0000000   0.0000000), wk =   0.0034722
        k(   37) = (   0.0833333   0.0000000   0.1250000), wk =   0.0069444
        k(   38) = (   0.0833333   0.0000000   0.2500000), wk =   0.0069444
        k(   39) = (   0.0833333   0.0000000   0.3750000), wk =   0.0069444
        k(   40) = (   0.0833333   0.0000000  -0.5000000), wk =   0.0034722
        k(   41) = (   0.0833333   0.0833333   0.0000000), wk =   0.0034722
        k(   42) = (   0.0833333   0.0833333   0.1250000), wk =   0.0069444
        k(   43) = (   0.0833333   0.0833333   0.2500000), wk =   0.0069444
        k(   44) = (   0.0833333   0.0833333   0.3750000), wk =   0.0069444
        k(   45) = (   0.0833333   0.0833333  -0.5000000), wk =   0.0034722
        k(   46) = (   0.0833333   0.1666667   0.0000000), wk =   0.0034722
        k(   47) = (   0.0833333   0.1666667   0.1250000), wk =   0.0069444
        k(   48) = (   0.0833333   0.1666667   0.2500000), wk =   0.0069444
        k(   49) = (   0.0833333   0.1666667   0.3750000), wk =   0.0069444
        k(   50) = (   0.0833333   0.1666667  -0.5000000), wk =   0.0034722
        k(   51) = (   0.0833333   0.2500000   0.0000000), wk =   0.0034722
        k(   52) = (   0.0833333   0.2500000   0.1250000), wk =   0.0069444
        k(   53) = (   0.0833333   0.2500000   0.2500000), wk =   0.0069444
        k(   54) = (   0.0833333   0.2500000   0.3750000), wk =   0.0069444
        k(   55) = (   0.0833333   0.2500000  -0.5000000), wk =   0.0034722
        k(   56) = (   0.0833333   0.3333333   0.0000000), wk =   0.0034722
        k(   57) = (   0.0833333   0.3333333   0.1250000), wk =   0.0069444
        k(   58) = (   0.0833333   0.3333333   0.2500000), wk =   0.0069444
        k(   59) = (   0.0833333   0.3333333   0.3750000), wk =   0.0069444
        k(   60) = (   0.0833333   0.3333333  -0.5000000), wk =   0.0034722
        k(   61) = (   0.0833333   0.4166667   0.0000000), wk =   0.0034722
        k(   62) = (   0.0833333   0.4166667   0.1250000), wk =   0.0069444
        k(   63) = (   0.0833333   0.4166667   0.2500000), wk =   0.0069444
        k(   64) = (   0.0833333   0.4166667   0.3750000), wk =   0.0069444
        k(   65) = (   0.0833333   0.4166667  -0.5000000), wk =   0.0034722
        k(   66) = (   0.0833333  -0.5000000   0.0000000), wk =   0.0034722
        k(   67) = (   0.0833333  -0.5000000   0.1250000), wk =   0.0069444
        k(   68) = (   0.0833333  -0.5000000   0.2500000), wk =   0.0069444
        k(   69) = (   0.0833333  -0.5000000   0.3750000), wk =   0.0069444
        k(   70) = (   0.0833333  -0.5000000  -0.5000000), wk =   0.0034722
        k(   71) = (   0.0833333  -0.4166667   0.0000000), wk =   0.0034722
        k(   72) = (   0.0833333  -0.4166667   0.1250000), wk =   0.0069444
        k(   73) = (   0.0833333  -0.4166667   0.2500000), wk =   0.0069444
        k(   74) = (   0.0833333  -0.4166667   0.3750000), wk =   0.0069444
        k(   75) = (   0.0833333  -0.4166667  -0.5000000), wk =   0.0034722
        k(   76) = (   0.0833333  -0.3333333   0.0000000), wk =   0.0034722
        k(   77) = (   0.0833333  -0.3333333   0.1250000), wk =   0.0069444
        k(   78) = (   0.0833333  -0.3333333   0.2500000), wk =   0.0069444
        k(   79) = (   0.0833333  -0.3333333   0.3750000), wk =   0.0069444
        k(   80) = (   0.0833333  -0.3333333  -0.5000000), wk =   0.0034722
        k(   81) = (   0.0833333  -0.2500000   0.0000000), wk =   0.0034722
        k(   82) = (   0.0833333  -0.2500000   0.1250000), wk =   0.0069444
        k(   83) = (   0.0833333  -0.2500000   0.2500000), wk =   0.0069444
        k(   84) = (   0.0833333  -0.2500000   0.3750000), wk =   0.0069444
        k(   85) = (   0.0833333  -0.2500000  -0.5000000), wk =   0.0034722
        k(   86) = (   0.0833333  -0.1666667   0.0000000), wk =   0.0034722
        k(   87) = (   0.0833333  -0.1666667   0.1250000), wk =   0.0069444
        k(   88) = (   0.0833333  -0.1666667   0.2500000), wk =   0.0069444
        k(   89) = (   0.0833333  -0.1666667   0.3750000), wk =   0.0069444
        k(   90) = (   0.0833333  -0.1666667  -0.5000000), wk =   0.0034722
        k(   91) = (   0.0833333  -0.0833333   0.0000000), wk =   0.0034722
        k(   92) = (   0.0833333  -0.0833333   0.1250000), wk =   0.0069444
        k(   93) = (   0.0833333  -0.0833333   0.2500000), wk =   0.0069444
        k(   94) = (   0.0833333  -0.0833333   0.3750000), wk =   0.0069444
        k(   95) = (   0.0833333  -0.0833333  -0.5000000), wk =   0.0034722
        k(   96) = (   0.1666667   0.0000000   0.0000000), wk =   0.0034722
        k(   97) = (   0.1666667   0.0000000   0.1250000), wk =   0.0069444
        k(   98) = (   0.1666667   0.0000000   0.2500000), wk =   0.0069444
        k(   99) = (   0.1666667   0.0000000   0.3750000), wk =   0.0069444
        k(  100) = (   0.1666667   0.0000000  -0.5000000), wk =   0.0034722
        k(  101) = (   0.1666667   0.0833333   0.0000000), wk =   0.0034722
        k(  102) = (   0.1666667   0.0833333   0.1250000), wk =   0.0069444
        k(  103) = (   0.1666667   0.0833333   0.2500000), wk =   0.0069444
        k(  104) = (   0.1666667   0.0833333   0.3750000), wk =   0.0069444
        k(  105) = (   0.1666667   0.0833333  -0.5000000), wk =   0.0034722
        k(  106) = (   0.1666667   0.1666667   0.0000000), wk =   0.0034722
        k(  107) = (   0.1666667   0.1666667   0.1250000), wk =   0.0069444
        k(  108) = (   0.1666667   0.1666667   0.2500000), wk =   0.0069444
        k(  109) = (   0.1666667   0.1666667   0.3750000), wk =   0.0069444
        k(  110) = (   0.1666667   0.1666667  -0.5000000), wk =   0.0034722
        k(  111) = (   0.1666667   0.2500000   0.0000000), wk =   0.0034722
        k(  112) = (   0.1666667   0.2500000   0.1250000), wk =   0.0069444
        k(  113) = (   0.1666667   0.2500000   0.2500000), wk =   0.0069444
        k(  114) = (   0.1666667   0.2500000   0.3750000), wk =   0.0069444
        k(  115) = (   0.1666667   0.2500000  -0.5000000), wk =   0.0034722
        k(  116) = (   0.1666667   0.3333333   0.0000000), wk =   0.0034722
        k(  117) = (   0.1666667   0.3333333   0.1250000), wk =   0.0069444
        k(  118) = (   0.1666667   0.3333333   0.2500000), wk =   0.0069444
        k(  119) = (   0.1666667   0.3333333   0.3750000), wk =   0.0069444
        k(  120) = (   0.1666667   0.3333333  -0.5000000), wk =   0.0034722
        k(  121) = (   0.1666667   0.4166667   0.0000000), wk =   0.0034722
        k(  122) = (   0.1666667   0.4166667   0.1250000), wk =   0.0069444
        k(  123) = (   0.1666667   0.4166667   0.2500000), wk =   0.0069444
        k(  124) = (   0.1666667   0.4166667   0.3750000), wk =   0.0069444
        k(  125) = (   0.1666667   0.4166667  -0.5000000), wk =   0.0034722
        k(  126) = (   0.1666667  -0.5000000   0.0000000), wk =   0.0034722
        k(  127) = (   0.1666667  -0.5000000   0.1250000), wk =   0.0069444
        k(  128) = (   0.1666667  -0.5000000   0.2500000), wk =   0.0069444
        k(  129) = (   0.1666667  -0.5000000   0.3750000), wk =   0.0069444
        k(  130) = (   0.1666667  -0.5000000  -0.5000000), wk =   0.0034722
        k(  131) = (   0.1666667  -0.4166667   0.0000000), wk =   0.0034722
        k(  132) = (   0.1666667  -0.4166667   0.1250000), wk =   0.0069444
        k(  133) = (   0.1666667  -0.4166667   0.2500000), wk =   0.0069444
        k(  134) = (   0.1666667  -0.4166667   0.3750000), wk =   0.0069444
        k(  135) = (   0.1666667  -0.4166667  -0.5000000), wk =   0.0034722
        k(  136) = (   0.1666667  -0.3333333   0.0000000), wk =   0.0034722
        k(  137) = (   0.1666667  -0.3333333   0.1250000), wk =   0.0069444
        k(  138) = (   0.1666667  -0.3333333   0.2500000), wk =   0.0069444
        k(  139) = (   0.1666667  -0.3333333   0.3750000), wk =   0.0069444
        k(  140) = (   0.1666667  -0.3333333  -0.5000000), wk =   0.0034722
        k(  141) = (   0.1666667  -0.2500000   0.0000000), wk =   0.0034722
        k(  142) = (   0.1666667  -0.2500000   0.1250000), wk =   0.0069444
        k(  143) = (   0.1666667  -0.2500000   0.2500000), wk =   0.0069444
        k(  144) = (   0.1666667  -0.2500000   0.3750000), wk =   0.0069444
        k(  145) = (   0.1666667  -0.2500000  -0.5000000), wk =   0.0034722
        k(  146) = (   0.1666667  -0.1666667   0.0000000), wk =   0.0034722
        k(  147) = (   0.1666667  -0.1666667   0.1250000), wk =   0.0069444
        k(  148) = (   0.1666667  -0.1666667   0.2500000), wk =   0.0069444
        k(  149) = (   0.1666667  -0.1666667   0.3750000), wk =   0.0069444
        k(  150) = (   0.1666667  -0.1666667  -0.5000000), wk =   0.0034722
        k(  151) = (   0.1666667  -0.0833333   0.0000000), wk =   0.0034722
        k(  152) = (   0.1666667  -0.0833333   0.1250000), wk =   0.0069444
        k(  153) = (   0.1666667  -0.0833333   0.2500000), wk =   0.0069444
        k(  154) = (   0.1666667  -0.0833333   0.3750000), wk =   0.0069444
        k(  155) = (   0.1666667  -0.0833333  -0.5000000), wk =   0.0034722
        k(  156) = (   0.2500000   0.0000000   0.0000000), wk =   0.0034722
        k(  157) = (   0.2500000   0.0000000   0.1250000), wk =   0.0069444
        k(  158) = (   0.2500000   0.0000000   0.2500000), wk =   0.0069444
        k(  159) = (   0.2500000   0.0000000   0.3750000), wk =   0.0069444
        k(  160) = (   0.2500000   0.0000000  -0.5000000), wk =   0.0034722
        k(  161) = (   0.2500000   0.0833333   0.0000000), wk =   0.0034722
        k(  162) = (   0.2500000   0.0833333   0.1250000), wk =   0.0069444
        k(  163) = (   0.2500000   0.0833333   0.2500000), wk =   0.0069444
        k(  164) = (   0.2500000   0.0833333   0.3750000), wk =   0.0069444
        k(  165) = (   0.2500000   0.0833333  -0.5000000), wk =   0.0034722
        k(  166) = (   0.2500000   0.1666667   0.0000000), wk =   0.0034722
        k(  167) = (   0.2500000   0.1666667   0.1250000), wk =   0.0069444
        k(  168) = (   0.2500000   0.1666667   0.2500000), wk =   0.0069444
        k(  169) = (   0.2500000   0.1666667   0.3750000), wk =   0.0069444
        k(  170) = (   0.2500000   0.1666667  -0.5000000), wk =   0.0034722
        k(  171) = (   0.2500000   0.2500000   0.0000000), wk =   0.0034722
        k(  172) = (   0.2500000   0.2500000   0.1250000), wk =   0.0069444
        k(  173) = (   0.2500000   0.2500000   0.2500000), wk =   0.0069444
        k(  174) = (   0.2500000   0.2500000   0.3750000), wk =   0.0069444
        k(  175) = (   0.2500000   0.2500000  -0.5000000), wk =   0.0034722
        k(  176) = (   0.2500000   0.3333333   0.0000000), wk =   0.0034722
        k(  177) = (   0.2500000   0.3333333   0.1250000), wk =   0.0069444
        k(  178) = (   0.2500000   0.3333333   0.2500000), wk =   0.0069444
        k(  179) = (   0.2500000   0.3333333   0.3750000), wk =   0.0069444
        k(  180) = (   0.2500000   0.3333333  -0.5000000), wk =   0.0034722
        k(  181) = (   0.2500000   0.4166667   0.0000000), wk =   0.0034722
        k(  182) = (   0.2500000   0.4166667   0.1250000), wk =   0.0069444
        k(  183) = (   0.2500000   0.4166667   0.2500000), wk =   0.0069444
        k(  184) = (   0.2500000   0.4166667   0.3750000), wk =   0.0069444
        k(  185) = (   0.2500000   0.4166667  -0.5000000), wk =   0.0034722
        k(  186) = (   0.2500000  -0.5000000   0.0000000), wk =   0.0034722
        k(  187) = (   0.2500000  -0.5000000   0.1250000), wk =   0.0069444
        k(  188) = (   0.2500000  -0.5000000   0.2500000), wk =   0.0069444
        k(  189) = (   0.2500000  -0.5000000   0.3750000), wk =   0.0069444
        k(  190) = (   0.2500000  -0.5000000  -0.5000000), wk =   0.0034722
        k(  191) = (   0.2500000  -0.4166667   0.0000000), wk =   0.0034722
        k(  192) = (   0.2500000  -0.4166667   0.1250000), wk =   0.0069444
        k(  193) = (   0.2500000  -0.4166667   0.2500000), wk =   0.0069444
        k(  194) = (   0.2500000  -0.4166667   0.3750000), wk =   0.0069444
        k(  195) = (   0.2500000  -0.4166667  -0.5000000), wk =   0.0034722
        k(  196) = (   0.2500000  -0.3333333   0.0000000), wk =   0.0034722
        k(  197) = (   0.2500000  -0.3333333   0.1250000), wk =   0.0069444
        k(  198) = (   0.2500000  -0.3333333   0.2500000), wk =   0.0069444
        k(  199) = (   0.2500000  -0.3333333   0.3750000), wk =   0.0069444
        k(  200) = (   0.2500000  -0.3333333  -0.5000000), wk =   0.0034722
        k(  201) = (   0.2500000  -0.2500000   0.0000000), wk =   0.0034722
        k(  202) = (   0.2500000  -0.2500000   0.1250000), wk =   0.0069444
        k(  203) = (   0.2500000  -0.2500000   0.2500000), wk =   0.0069444
        k(  204) = (   0.2500000  -0.2500000   0.3750000), wk =   0.0069444
        k(  205) = (   0.2500000  -0.2500000  -0.5000000), wk =   0.0034722
        k(  206) = (   0.2500000  -0.1666667   0.0000000), wk =   0.0034722
        k(  207) = (   0.2500000  -0.1666667   0.1250000), wk =   0.0069444
        k(  208) = (   0.2500000  -0.1666667   0.2500000), wk =   0.0069444
        k(  209) = (   0.2500000  -0.1666667   0.3750000), wk =   0.0069444
        k(  210) = (   0.2500000  -0.1666667  -0.5000000), wk =   0.0034722
        k(  211) = (   0.2500000  -0.0833333   0.0000000), wk =   0.0034722
        k(  212) = (   0.2500000  -0.0833333   0.1250000), wk =   0.0069444
        k(  213) = (   0.2500000  -0.0833333   0.2500000), wk =   0.0069444
        k(  214) = (   0.2500000  -0.0833333   0.3750000), wk =   0.0069444
        k(  215) = (   0.2500000  -0.0833333  -0.5000000), wk =   0.0034722
        k(  216) = (   0.3333333   0.0000000   0.0000000), wk =   0.0034722
        k(  217) = (   0.3333333   0.0000000   0.1250000), wk =   0.0069444
        k(  218) = (   0.3333333   0.0000000   0.2500000), wk =   0.0069444
        k(  219) = (   0.3333333   0.0000000   0.3750000), wk =   0.0069444
        k(  220) = (   0.3333333   0.0000000  -0.5000000), wk =   0.0034722
        k(  221) = (   0.3333333   0.0833333   0.0000000), wk =   0.0034722
        k(  222) = (   0.3333333   0.0833333   0.1250000), wk =   0.0069444
        k(  223) = (   0.3333333   0.0833333   0.2500000), wk =   0.0069444
        k(  224) = (   0.3333333   0.0833333   0.3750000), wk =   0.0069444
        k(  225) = (   0.3333333   0.0833333  -0.5000000), wk =   0.0034722
        k(  226) = (   0.3333333   0.1666667   0.0000000), wk =   0.0034722
        k(  227) = (   0.3333333   0.1666667   0.1250000), wk =   0.0069444
        k(  228) = (   0.3333333   0.1666667   0.2500000), wk =   0.0069444
        k(  229) = (   0.3333333   0.1666667   0.3750000), wk =   0.0069444
        k(  230) = (   0.3333333   0.1666667  -0.5000000), wk =   0.0034722
        k(  231) = (   0.3333333   0.2500000   0.0000000), wk =   0.0034722
        k(  232) = (   0.3333333   0.2500000   0.1250000), wk =   0.0069444
        k(  233) = (   0.3333333   0.2500000   0.2500000), wk =   0.0069444
        k(  234) = (   0.3333333   0.2500000   0.3750000), wk =   0.0069444
        k(  235) = (   0.3333333   0.2500000  -0.5000000), wk =   0.0034722
        k(  236) = (   0.3333333   0.3333333   0.0000000), wk =   0.0034722
        k(  237) = (   0.3333333   0.3333333   0.1250000), wk =   0.0069444
        k(  238) = (   0.3333333   0.3333333   0.2500000), wk =   0.0069444
        k(  239) = (   0.3333333   0.3333333   0.3750000), wk =   0.0069444
        k(  240) = (   0.3333333   0.3333333  -0.5000000), wk =   0.0034722
        k(  241) = (   0.3333333   0.4166667   0.0000000), wk =   0.0034722
        k(  242) = (   0.3333333   0.4166667   0.1250000), wk =   0.0069444
        k(  243) = (   0.3333333   0.4166667   0.2500000), wk =   0.0069444
        k(  244) = (   0.3333333   0.4166667   0.3750000), wk =   0.0069444
        k(  245) = (   0.3333333   0.4166667  -0.5000000), wk =   0.0034722
        k(  246) = (   0.3333333  -0.5000000   0.0000000), wk =   0.0034722
        k(  247) = (   0.3333333  -0.5000000   0.1250000), wk =   0.0069444
        k(  248) = (   0.3333333  -0.5000000   0.2500000), wk =   0.0069444
        k(  249) = (   0.3333333  -0.5000000   0.3750000), wk =   0.0069444
        k(  250) = (   0.3333333  -0.5000000  -0.5000000), wk =   0.0034722
        k(  251) = (   0.3333333  -0.4166667   0.0000000), wk =   0.0034722
        k(  252) = (   0.3333333  -0.4166667   0.1250000), wk =   0.0069444
        k(  253) = (   0.3333333  -0.4166667   0.2500000), wk =   0.0069444
        k(  254) = (   0.3333333  -0.4166667   0.3750000), wk =   0.0069444
        k(  255) = (   0.3333333  -0.4166667  -0.5000000), wk =   0.0034722
        k(  256) = (   0.3333333  -0.3333333   0.0000000), wk =   0.0034722
        k(  257) = (   0.3333333  -0.3333333   0.1250000), wk =   0.0069444
        k(  258) = (   0.3333333  -0.3333333   0.2500000), wk =   0.0069444
        k(  259) = (   0.3333333  -0.3333333   0.3750000), wk =   0.0069444
        k(  260) = (   0.3333333  -0.3333333  -0.5000000), wk =   0.0034722
        k(  261) = (   0.3333333  -0.2500000   0.0000000), wk =   0.0034722
        k(  262) = (   0.3333333  -0.2500000   0.1250000), wk =   0.0069444
        k(  263) = (   0.3333333  -0.2500000   0.2500000), wk =   0.0069444
        k(  264) = (   0.3333333  -0.2500000   0.3750000), wk =   0.0069444
        k(  265) = (   0.3333333  -0.2500000  -0.5000000), wk =   0.0034722
        k(  266) = (   0.3333333  -0.1666667   0.0000000), wk =   0.0034722
        k(  267) = (   0.3333333  -0.1666667   0.1250000), wk =   0.0069444
        k(  268) = (   0.3333333  -0.1666667   0.2500000), wk =   0.0069444
        k(  269) = (   0.3333333  -0.1666667   0.3750000), wk =   0.0069444
        k(  270) = (   0.3333333  -0.1666667  -0.5000000), wk =   0.0034722
        k(  271) = (   0.3333333  -0.0833333   0.0000000), wk =   0.0034722
        k(  272) = (   0.3333333  -0.0833333   0.1250000), wk =   0.0069444
        k(  273) = (   0.3333333  -0.0833333   0.2500000), wk =   0.0069444
        k(  274) = (   0.3333333  -0.0833333   0.3750000), wk =   0.0069444
        k(  275) = (   0.3333333  -0.0833333  -0.5000000), wk =   0.0034722
        k(  276) = (   0.4166667   0.0000000   0.0000000), wk =   0.0034722
        k(  277) = (   0.4166667   0.0000000   0.1250000), wk =   0.0069444
        k(  278) = (   0.4166667   0.0000000   0.2500000), wk =   0.0069444
        k(  279) = (   0.4166667   0.0000000   0.3750000), wk =   0.0069444
        k(  280) = (   0.4166667   0.0000000  -0.5000000), wk =   0.0034722
        k(  281) = (   0.4166667   0.0833333   0.0000000), wk =   0.0034722
        k(  282) = (   0.4166667   0.0833333   0.1250000), wk =   0.0069444
        k(  283) = (   0.4166667   0.0833333   0.2500000), wk =   0.0069444
        k(  284) = (   0.4166667   0.0833333   0.3750000), wk =   0.0069444
        k(  285) = (   0.4166667   0.0833333  -0.5000000), wk =   0.0034722
        k(  286) = (   0.4166667   0.1666667   0.0000000), wk =   0.0034722
        k(  287) = (   0.4166667   0.1666667   0.1250000), wk =   0.0069444
        k(  288) = (   0.4166667   0.1666667   0.2500000), wk =   0.0069444
        k(  289) = (   0.4166667   0.1666667   0.3750000), wk =   0.0069444
        k(  290) = (   0.4166667   0.1666667  -0.5000000), wk =   0.0034722
        k(  291) = (   0.4166667   0.2500000   0.0000000), wk =   0.0034722
        k(  292) = (   0.4166667   0.2500000   0.1250000), wk =   0.0069444
        k(  293) = (   0.4166667   0.2500000   0.2500000), wk =   0.0069444
        k(  294) = (   0.4166667   0.2500000   0.3750000), wk =   0.0069444
        k(  295) = (   0.4166667   0.2500000  -0.5000000), wk =   0.0034722
        k(  296) = (   0.4166667   0.3333333   0.0000000), wk =   0.0034722
        k(  297) = (   0.4166667   0.3333333   0.1250000), wk =   0.0069444
        k(  298) = (   0.4166667   0.3333333   0.2500000), wk =   0.0069444
        k(  299) = (   0.4166667   0.3333333   0.3750000), wk =   0.0069444
        k(  300) = (   0.4166667   0.3333333  -0.5000000), wk =   0.0034722
        k(  301) = (   0.4166667   0.4166667   0.0000000), wk =   0.0034722
        k(  302) = (   0.4166667   0.4166667   0.1250000), wk =   0.0069444
        k(  303) = (   0.4166667   0.4166667   0.2500000), wk =   0.0069444
        k(  304) = (   0.4166667   0.4166667   0.3750000), wk =   0.0069444
        k(  305) = (   0.4166667   0.4166667  -0.5000000), wk =   0.0034722
        k(  306) = (   0.4166667  -0.5000000   0.0000000), wk =   0.0034722
        k(  307) = (   0.4166667  -0.5000000   0.1250000), wk =   0.0069444
        k(  308) = (   0.4166667  -0.5000000   0.2500000), wk =   0.0069444
        k(  309) = (   0.4166667  -0.5000000   0.3750000), wk =   0.0069444
        k(  310) = (   0.4166667  -0.5000000  -0.5000000), wk =   0.0034722
        k(  311) = (   0.4166667  -0.4166667   0.0000000), wk =   0.0034722
        k(  312) = (   0.4166667  -0.4166667   0.1250000), wk =   0.0069444
        k(  313) = (   0.4166667  -0.4166667   0.2500000), wk =   0.0069444
        k(  314) = (   0.4166667  -0.4166667   0.3750000), wk =   0.0069444
        k(  315) = (   0.4166667  -0.4166667  -0.5000000), wk =   0.0034722
        k(  316) = (   0.4166667  -0.3333333   0.0000000), wk =   0.0034722
        k(  317) = (   0.4166667  -0.3333333   0.1250000), wk =   0.0069444
        k(  318) = (   0.4166667  -0.3333333   0.2500000), wk =   0.0069444
        k(  319) = (   0.4166667  -0.3333333   0.3750000), wk =   0.0069444
        k(  320) = (   0.4166667  -0.3333333  -0.5000000), wk =   0.0034722
        k(  321) = (   0.4166667  -0.2500000   0.0000000), wk =   0.0034722
        k(  322) = (   0.4166667  -0.2500000   0.1250000), wk =   0.0069444
        k(  323) = (   0.4166667  -0.2500000   0.2500000), wk =   0.0069444
        k(  324) = (   0.4166667  -0.2500000   0.3750000), wk =   0.0069444
        k(  325) = (   0.4166667  -0.2500000  -0.5000000), wk =   0.0034722
        k(  326) = (   0.4166667  -0.1666667   0.0000000), wk =   0.0034722
        k(  327) = (   0.4166667  -0.1666667   0.1250000), wk =   0.0069444
        k(  328) = (   0.4166667  -0.1666667   0.2500000), wk =   0.0069444
        k(  329) = (   0.4166667  -0.1666667   0.3750000), wk =   0.0069444
        k(  330) = (   0.4166667  -0.1666667  -0.5000000), wk =   0.0034722
        k(  331) = (   0.4166667  -0.0833333   0.0000000), wk =   0.0034722
        k(  332) = (   0.4166667  -0.0833333   0.1250000), wk =   0.0069444
        k(  333) = (   0.4166667  -0.0833333   0.2500000), wk =   0.0069444
        k(  334) = (   0.4166667  -0.0833333   0.3750000), wk =   0.0069444
        k(  335) = (   0.4166667  -0.0833333  -0.5000000), wk =   0.0034722
        k(  336) = (  -0.5000000   0.0000000   0.0000000), wk =   0.0017361
        k(  337) = (  -0.5000000   0.0000000   0.1250000), wk =   0.0034722
        k(  338) = (  -0.5000000   0.0000000   0.2500000), wk =   0.0034722
        k(  339) = (  -0.5000000   0.0000000   0.3750000), wk =   0.0034722
        k(  340) = (  -0.5000000   0.0000000  -0.5000000), wk =   0.0017361
        k(  341) = (  -0.5000000   0.0833333   0.0000000), wk =   0.0034722
        k(  342) = (  -0.5000000   0.0833333   0.1250000), wk =   0.0069444
        k(  343) = (  -0.5000000   0.0833333   0.2500000), wk =   0.0069444
        k(  344) = (  -0.5000000   0.0833333   0.3750000), wk =   0.0069444
        k(  345) = (  -0.5000000   0.0833333  -0.5000000), wk =   0.0034722
        k(  346) = (  -0.5000000   0.1666667   0.0000000), wk =   0.0034722
        k(  347) = (  -0.5000000   0.1666667   0.1250000), wk =   0.0069444
        k(  348) = (  -0.5000000   0.1666667   0.2500000), wk =   0.0069444
        k(  349) = (  -0.5000000   0.1666667   0.3750000), wk =   0.0069444
        k(  350) = (  -0.5000000   0.1666667  -0.5000000), wk =   0.0034722
        k(  351) = (  -0.5000000   0.2500000   0.0000000), wk =   0.0034722
        k(  352) = (  -0.5000000   0.2500000   0.1250000), wk =   0.0069444
        k(  353) = (  -0.5000000   0.2500000   0.2500000), wk =   0.0069444
        k(  354) = (  -0.5000000   0.2500000   0.3750000), wk =   0.0069444
        k(  355) = (  -0.5000000   0.2500000  -0.5000000), wk =   0.0034722
        k(  356) = (  -0.5000000   0.3333333   0.0000000), wk =   0.0034722
        k(  357) = (  -0.5000000   0.3333333   0.1250000), wk =   0.0069444
        k(  358) = (  -0.5000000   0.3333333   0.2500000), wk =   0.0069444
        k(  359) = (  -0.5000000   0.3333333   0.3750000), wk =   0.0069444
        k(  360) = (  -0.5000000   0.3333333  -0.5000000), wk =   0.0034722
        k(  361) = (  -0.5000000   0.4166667   0.0000000), wk =   0.0034722
        k(  362) = (  -0.5000000   0.4166667   0.1250000), wk =   0.0069444
        k(  363) = (  -0.5000000   0.4166667   0.2500000), wk =   0.0069444
        k(  364) = (  -0.5000000   0.4166667   0.3750000), wk =   0.0069444
        k(  365) = (  -0.5000000   0.4166667  -0.5000000), wk =   0.0034722
        k(  366) = (  -0.5000000  -0.5000000   0.0000000), wk =   0.0017361
        k(  367) = (  -0.5000000  -0.5000000   0.1250000), wk =   0.0034722
        k(  368) = (  -0.5000000  -0.5000000   0.2500000), wk =   0.0034722
        k(  369) = (  -0.5000000  -0.5000000   0.3750000), wk =   0.0034722
        k(  370) = (  -0.5000000  -0.5000000  -0.5000000), wk =   0.0017361

     Dense  grid:    43199 G-vectors     FFT dimensions: (  40,  40,  64)

     Smooth grid:    15273 G-vectors     FFT dimensions: (  27,  27,  48)

     Dynamical RAM for                 wfc:       0.90 MB

     Dynamical RAM for     wfc (w. buffer):     335.01 MB

     Dynamical RAM for           str. fact:       1.32 MB

     Dynamical RAM for           local pot:       0.00 MB

     Dynamical RAM for          nlocal pot:       1.51 MB

     Dynamical RAM for                qrad:       3.21 MB

     Dynamical RAM for          rho,v,vnew:       4.32 MB

     Dynamical RAM for               rhoin:       1.44 MB

     Dynamical RAM for            rho*nmix:      10.55 MB

     Dynamical RAM for           G-vectors:       2.59 MB

     Dynamical RAM for          h,s,v(r/c):       0.18 MB

     Dynamical RAM for          <psi|beta>:       0.02 MB

     Dynamical RAM for                 psi:       1.81 MB

     Dynamical RAM for                hpsi:       1.81 MB

     Dynamical RAM for                spsi:       1.81 MB

     Dynamical RAM for      wfcinit/wfcrot:       2.01 MB

     Dynamical RAM for           addusdens:     123.92 MB

     Dynamical RAM for          addusforce:     125.58 MB

     Dynamical RAM for         addusstress:     132.49 MB

     Estimated static dynamical RAM per process >     355.29 MB

     Estimated max dynamical RAM per process >     498.33 MB

     Check: negative core charge=   -0.000003

     Initial potential from superposition of free atoms

     starting charge      51.9997, renormalised to      52.0000
     Starting wfcs are   34 randomized atomic wfcs
     Checking if some PAW data can be deallocated... 

     total cpu time spent up to now is       27.5 secs

     Self-consistent Calculation

     iteration #  1     ecut=    50.00 Ry     beta= 0.40
     Davidson diagonalization with overlap

---- Real-time Memory Report at c_bands before calling an iterative solver
           400 MiB given to the printing process from OS
             0 MiB allocation reported by mallinfo(arena+hblkhd)
          4945 MiB available memory on the node where the printing process lives
------------------
     ethr =  1.00E-02,  avg # of iterations =  2.9

     total cpu time spent up to now is       92.2 secs

     total energy              =   -1006.32201720 Ry
     estimated scf accuracy    <       0.85253612 Ry

     iteration #  2     ecut=    50.00 Ry     beta= 0.40
     Davidson diagonalization with overlap

---- Real-time Memory Report at c_bands before calling an iterative solver
           552 MiB given to the printing process from OS
             0 MiB allocation reported by mallinfo(arena+hblkhd)
          4897 MiB available memory on the node where the printing process lives
------------------
     ethr =  1.64E-03,  avg # of iterations =  2.0

     total cpu time spent up to now is      158.7 secs

     WARNING: integrated charge=    52.00027140, expected=    52.00000000

     total energy              =   -1006.55340960 Ry
     estimated scf accuracy    <       0.10177915 Ry

     iteration #  3     ecut=    50.00 Ry     beta= 0.40
     Davidson diagonalization with overlap

---- Real-time Memory Report at c_bands before calling an iterative solver
           552 MiB given to the printing process from OS
             0 MiB allocation reported by mallinfo(arena+hblkhd)
          4896 MiB available memory on the node where the printing process lives
------------------
     ethr =  1.96E-04,  avg # of iterations =  2.2

     total cpu time spent up to now is      222.6 secs

     WARNING: integrated charge=    52.00019075, expected=    52.00000000

     total energy              =   -1006.56762802 Ry
     estimated scf accuracy    <       0.00918221 Ry

     iteration #  4     ecut=    50.00 Ry     beta= 0.40
     Davidson diagonalization with overlap

---- Real-time Memory Report at c_bands before calling an iterative solver
           553 MiB given to the printing process from OS
             0 MiB allocation reported by mallinfo(arena+hblkhd)
          4893 MiB available memory on the node where the printing process lives
------------------
     ethr =  1.77E-05,  avg # of iterations =  3.9

     total cpu time spent up to now is      288.1 secs

     WARNING: integrated charge=    52.00010119, expected=    52.00000000

     total energy              =   -1006.56790141 Ry
     estimated scf accuracy    <       0.00171629 Ry

     iteration #  5     ecut=    50.00 Ry     beta= 0.40
     Davidson diagonalization with overlap

---- Real-time Memory Report at c_bands before calling an iterative solver
           553 MiB given to the printing process from OS
             0 MiB allocation reported by mallinfo(arena+hblkhd)
          4896 MiB available memory on the node where the printing process lives
------------------
     ethr =  3.30E-06,  avg # of iterations =  2.4

     total cpu time spent up to now is      360.5 secs

     WARNING: integrated charge=    52.00008833, expected=    52.00000000

     total energy              =   -1006.56798936 Ry
     estimated scf accuracy    <       0.00004135 Ry

     iteration #  6     ecut=    50.00 Ry     beta= 0.40
     Davidson diagonalization with overlap

---- Real-time Memory Report at c_bands before calling an iterative solver
           554 MiB given to the printing process from OS
             0 MiB allocation reported by mallinfo(arena+hblkhd)
          4892 MiB available memory on the node where the printing process lives
------------------
     ethr =  7.95E-08,  avg # of iterations =  3.0

     total cpu time spent up to now is      475.7 secs

     WARNING: integrated charge=    52.00007963, expected=    52.00000000

     total energy              =   -1006.56799578 Ry
     estimated scf accuracy    <       0.00007409 Ry

     iteration #  7     ecut=    50.00 Ry     beta= 0.40
     Davidson diagonalization with overlap

---- Real-time Memory Report at c_bands before calling an iterative solver
           557 MiB given to the printing process from OS
             0 MiB allocation reported by mallinfo(arena+hblkhd)
          4888 MiB available memory on the node where the printing process lives
------------------
     ethr =  7.95E-08,  avg # of iterations =  2.0

     total cpu time spent up to now is      543.7 secs

     WARNING: integrated charge=    52.00007757, expected=    52.00000000

     total energy              =   -1006.56801168 Ry
     estimated scf accuracy    <       0.00000028 Ry

     iteration #  8     ecut=    50.00 Ry     beta= 0.40
     Davidson diagonalization with overlap

---- Real-time Memory Report at c_bands before calling an iterative solver
           558 MiB given to the printing process from OS
             0 MiB allocation reported by mallinfo(arena+hblkhd)
          4890 MiB available memory on the node where the printing process lives
------------------
     ethr =  5.41E-10,  avg # of iterations =  3.1

     total cpu time spent up to now is      629.7 secs

     WARNING: integrated charge=    52.00007767, expected=    52.00000000

     total energy              =   -1006.56801180 Ry
     estimated scf accuracy    <       0.00000019 Ry

     iteration #  9     ecut=    50.00 Ry     beta= 0.40
     Davidson diagonalization with overlap

---- Real-time Memory Report at c_bands before calling an iterative solver
           558 MiB given to the printing process from OS
             0 MiB allocation reported by mallinfo(arena+hblkhd)
          4887 MiB available memory on the node where the printing process lives
------------------
     ethr =  3.65E-10,  avg # of iterations =  2.6

     total cpu time spent up to now is      709.5 secs

     WARNING: integrated charge=    52.00007737, expected=    52.00000000

     total energy              =   -1006.56801181 Ry
     estimated scf accuracy    <       0.00000016 Ry

     iteration # 10     ecut=    50.00 Ry     beta= 0.40
     Davidson diagonalization with overlap

---- Real-time Memory Report at c_bands before calling an iterative solver
           559 MiB given to the printing process from OS
             0 MiB allocation reported by mallinfo(arena+hblkhd)
          4884 MiB available memory on the node where the printing process lives
------------------
     ethr =  3.06E-10,  avg # of iterations =  2.0

     total cpu time spent up to now is      777.3 secs

     End of self-consistent calculation

          k = 0.0000 0.0000 0.0000 (  1881 PWs)   bands (ev):

  -114.5433-114.5432 -68.7447 -68.7422 -68.7389 -68.7387 -68.7367 -68.7366
    -9.2211  -8.4877   3.1545   3.1641   3.2041   3.2350   3.3475   3.3654
     4.3429   4.3525   4.5580   4.5599   4.8366   8.0716   8.1262   8.8079
     8.8685   8.9276   9.6970  14.1509  17.1123  21.7008  22.0252

     occupation numbers 
     1.0000   1.0000   1.0000   1.0000   1.0000   1.0000   1.0000   1.0000
     1.0000   1.0000   1.0000   1.0000   1.0000   1.0000   1.0000   1.0000
     1.0000   1.0000   1.0000   1.0000   1.0000   1.0000   1.0000   1.0002
     1.0010   1.0034   0.0252   0.0000   0.0000   0.0000   0.0000

          k = 0.0000 0.0000 0.0775 (  1894 PWs)   bands (ev):

  -114.5433-114.5432 -68.7447 -68.7424 -68.7390 -68.7387 -68.7367 -68.7366
    -9.1947  -8.5172   3.1457   3.1652   3.1749   3.1792   3.3361   3.3538
     4.3542   4.3632   4.5535   4.5554   5.0188   8.1024   8.1572   8.4413
     8.8389   8.8979  10.1140  14.0126  17.2344  21.7010  22.0263

     occupation numbers 
     1.0000   1.0000   1.0000   1.0000   1.0000   1.0000   1.0000   1.0000
     1.0000   1.0000   1.0000   1.0000   1.0000   1.0000   1.0000   1.0000
     1.0000   1.0000   1.0000   1.0000   1.0000   1.0000   1.0000   1.0000
     1.0005   1.0018   0.0000   0.0000   0.0000   0.0000   0.0000

          k = 0.0000 0.0000 0.1550 (  1888 PWs)   bands (ev):

  -114.5433-114.5432 -68.7444 -68.7427 -68.7389 -68.7388 -68.7367 -68.7366
    -9.1189  -8.6005   3.0322   3.0999   3.1732   3.1835   3.3059   3.3229
     4.3851   4.3927   4.5386   4.5407   5.4640   7.8561   8.1905   8.2460
     8.7541   8.8128  10.8307  13.6274  17.5912  21.1906  21.7223

     occupation numbers 
     1.0000   1.0000   1.0000   1.0000   1.0000   1.0000   1.0000   1.0000
     1.0000   1.0000   1.0000   1.0000   1.0000   1.0000   1.0000   1.0000
     1.0000   1.0000   1.0000   1.0000   1.0000   1.0000   1.0000   1.0000
     1.0000   1.0002   0.0000   0.0000   0.0000   0.0000   0.0000

          k = 0.0000 0.0000 0.2325 (  1894 PWs)   bands (ev):

  -114.5433-114.5432 -68.7440 -68.7431 -68.7389 -68.7389 -68.7367 -68.7366
    -9.0037  -8.7232   2.9539   3.0119   3.1946   3.2068   3.2661   3.2819
     4.4279   4.4336   4.5115   4.5142   6.0315   7.2525   8.3212   8.3775
     8.6264   8.6844  11.6025  13.0569  18.1737  20.0103  21.8047

     occupation numbers 
     1.0000   1.0000   1.0000   1.0000   1.0000   1.0000   1.0000   1.0000
     1.0000   1.0000   1.0000   1.0000   1.0000   1.0000   1.0000   1.0000
     1.0000   1.0000   1.0000   1.0000   1.0000   1.0000   1.0000   1.0000
     1.0000   1.0000   0.0000   0.0000   0.0000   0.0000   0.0000

          k = 0.0000 0.0000-0.3100 (  1898 PWs)   bands (ev):

  -114.5433-114.5433 -68.7436 -68.7436 -68.7389 -68.7389 -68.7367 -68.7367
    -8.8650  -8.8650   2.9517   2.9517   3.2266   3.2266   3.2408   3.2408
     4.4729   4.4729   4.4769   4.4769   6.6405   6.6405   8.4744   8.4744
     8.5317   8.5317  12.3629  12.3629  18.9836  18.9836  21.9792

     occupation numbers 
     1.0000   1.0000   1.0000   1.0000   1.0000   1.0000   1.0000   1.0000
     1.0000   1.0000   1.0000   1.0000   1.0000   1.0000   1.0000   1.0000
     1.0000   1.0000   1.0000   1.0000   1.0000   1.0000   1.0000   1.0000
     1.0000   1.0000   0.0000   0.0000   0.0000   0.0000   0.0000

          k =-0.0010 0.0962 0.0000 (  1883 PWs)   bands (ev):

  -114.5433-114.5432 -68.7447 -68.7423 -68.7391 -68.7388 -68.7368 -68.7366
    -9.1819  -8.4700   3.1159   3.1806   3.2297   3.2865   3.3539   3.3912
     4.3301   4.3461   4.5624   4.5892   4.8277   7.8388   8.0073   8.4175
     8.7622   8.8488  10.2652  14.4457  17.1107  21.0762  21.9451

     occupation numbers 
     1.0000   1.0000   1.0000   1.0000   1.0000   1.0000   1.0000   1.0000
     1.0000   1.0000   1.0000   1.0000   1.0000   1.0000   1.0000   1.0000
     1.0000   1.0000   1.0000   1.0000   1.0000   1.0000   1.0000   1.0000
     1.0001   1.0006   0.0000   0.0000   0.0000   0.0000   0.0000

          k =-0.0010 0.0962 0.0775 (  1893 PWs)   bands (ev):

  -114.5433-114.5432 -68.7446 -68.7425 -68.7391 -68.7389 -68.7368 -68.7366
    -9.1562  -8.4985   3.1008   3.1745   3.2005   3.2255   3.3535   3.3797
     4.3428   4.3570   4.5573   4.5739   5.0248   7.8696   8.0401   8.2035
     8.7356   8.8208  10.5240  14.2939  17.2370  21.0988  21.9460

     occupation numbers 
     1.0000   1.0000   1.0000   1.0000   1.0000   1.0000   1.0000   1.0000
     1.0000   1.0000   1.0000   1.0000   1.0000   1.0000   1.0000   1.0000
     1.0000   1.0000   1.0000   1.0000   1.0000   1.0000   1.0000   1.0000
     1.0000   1.0003   0.0000   0.0000   0.0000   0.0000   0.0000

          k =-0.0010 0.0962 0.1550 (  1896 PWs)   bands (ev):

  -114.5433-114.5432 -68.7444 -68.7427 -68.7391 -68.7389 -68.7368 -68.7366
    -9.0823  -8.5790   3.0348   3.0568   3.2005   3.2147   3.3286   3.3485
     4.3772   4.3872   4.5411   4.5506   5.4821   7.7332   7.9840   8.1338
     8.6366   8.7330  11.1159  13.8806  17.5983  21.0232  21.3612

     occupation numbers 
     1.0000   1.0000   1.0000   1.0000   1.0000   1.0000   1.0000   1.0000
     1.0000   1.0000   1.0000   1.0000   1.0000   1.0000   1.0000   1.0000
     1.0000   1.0000   1.0000   1.0000   1.0000   1.0000   1.0000   1.0000
     1.0000   1.0000   0.0000   0.0000   0.0000   0.0000   0.0000

          k =-0.0010 0.0962 0.2325 (  1895 PWs)   bands (ev):

  -114.5433-114.5432 -68.7440 -68.7431 -68.7391 -68.7390 -68.7368 -68.7367
    -8.9701  -8.6977   2.9449   2.9781   3.2207   3.2300   3.2910   3.3069
     4.4241   4.4294   4.5126   4.5181   6.0485   7.2098   8.1241   8.2727
     8.4819   8.5975  11.8358  13.2857  18.1766  19.9754  21.3997

     occupation numbers 
     1.0000   1.0000   1.0000   1.0000   1.0000   1.0000   1.0000   1.0000
     1.0000   1.0000   1.0000   1.0000   1.0000   1.0000   1.0000   1.0000
     1.0000   1.0000   1.0000   1.0000   1.0000   1.0000   1.0000   1.0000
     1.0000   1.0000   0.0000   0.0000   0.0000   0.0000   0.0000

          k =-0.0010 0.0962-0.3100 (  1896 PWs)   bands (ev):

  -114.5432-114.5432 -68.7436 -68.7436 -68.7390 -68.7390 -68.7367 -68.7367
    -8.8353  -8.8353   2.9296   2.9296   3.2480   3.2480   3.2680   3.2680
     4.4721   4.4721   4.4759   4.4759   6.6393   6.6393   8.3002   8.3002
     8.4362   8.4362  12.5822  12.5822  18.9725  18.9725  21.6253

     occupation numbers 
     1.0000   1.0000   1.0000   1.0000   1.0000   1.0000   1.0000   1.0000
     1.0000   1.0000   1.0000   1.0000   1.0000   1.0000   1.0000   1.0000
     1.0000   1.0000   1.0000   1.0000   1.0000   1.0000   1.0000   1.0000
     1.0000   1.0000   0.0000   0.0000   0.0000   0.0000   0.0000

          k =-0.0019 0.1925 0.0000 (  1889 PWs)   bands (ev):

  -114.5433-114.5431 -68.7446 -68.7425 -68.7395 -68.7392 -68.7369 -68.7367
    -9.0717  -8.4230   3.0113   3.2407   3.2664   3.3433   3.4693   3.4914
     4.2866   4.3461   4.5707   4.6753   4.8072   7.1810   7.7438   7.7892
     8.6209   8.7061  11.1732  15.1660  17.1005  19.7732  21.5067

     occupation numbers 
     1.0000   1.0000   1.0000   1.0000   1.0000   1.0000   1.0000   1.0000
     1.0000   1.0000   1.0000   1.0000   1.0000   1.0000   1.0000   1.0000
     1.0000   1.0000   1.0000   1.0000   1.0000   1.0000   1.0000   1.0000
     1.0000   1.0000   0.0000   0.0000   0.0000   0.0000   0.0000

          k =-0.0019 0.1925 0.0775 (  1895 PWs)   bands (ev):

  -114.5433-114.5431 -68.7445 -68.7426 -68.7395 -68.7392 -68.7370 -68.7367
    -9.0478  -8.4485   2.9933   3.2088   3.2484   3.3115   3.4440   3.4702
     4.3051   4.3566   4.5643   4.6224   5.0526   7.2145   7.6896   7.7875
     8.5777   8.6713  11.3311  14.9706  17.2411  19.8091  21.4164

     occupation numbers 
     1.0000   1.0000   1.0000   1.0000   1.0000   1.0000   1.0000   1.0000
     1.0000   1.0000   1.0000   1.0000   1.0000   1.0000   1.0000   1.0000
     1.0000   1.0000   1.0000   1.0000   1.0000   1.0000   1.0000   1.0000
     1.0000   1.0000   0.0000   0.0000   0.0000   0.0000   0.0000

          k =-0.0019 0.1925 0.1550 (  1901 PWs)   bands (ev):

  -114.5433-114.5432 -68.7443 -68.7428 -68.7395 -68.7393 -68.7370 -68.7368
    -8.9796  -8.5209   2.9439   3.0538   3.2642   3.2912   3.4010   3.4330
     4.3517   4.3856   4.5450   4.5796   5.5321   7.2529   7.5210   7.8931
     8.4274   8.5706  11.7656  14.4771  17.6068  19.8605  21.0510

     occupation numbers 
     1.0000   1.0000   1.0000   1.0000   1.0000   1.0000   1.0000   1.0000
     1.0000   1.0000   1.0000   1.0000   1.0000   1.0000   1.0000   1.0000
     1.0000   1.0000   1.0000   1.0000   1.0000   1.0000   1.0000   1.0000
     1.0000   1.0000   0.0000   0.0000   0.0000   0.0000   0.0000

          k =-0.0019 0.1925 0.2325 (  1908 PWs)   bands (ev):

  -114.5433-114.5432 -68.7440 -68.7432 -68.7394 -68.7393 -68.7370 -68.7369
    -8.8765  -8.6282   2.8888   2.9268   3.2898   3.2977   3.3587   3.3861
[...]
     4.3201   4.3962   4.6183   4.8177   4.9881   5.6191   5.9947   6.3427
     7.5676   7.7275  14.7441  16.5870  16.9022  17.5006  19.7568

     occupation numbers 
     1.0000   1.0000   1.0000   1.0000   1.0000   1.0000   1.0000   1.0000
     1.0000   1.0000   1.0000   1.0000   1.0000   1.0000   1.0000   1.0000
     1.0000   1.0000   1.0000   1.0000   1.0000   1.0000   1.0000   1.0000
     1.0000   1.0000   0.0000   0.0000   0.0000   0.0000   0.0000

          k =-0.5010 0.1012 0.0775 (  1915 PWs)   bands (ev):

  -114.5432-114.5431 -68.7444 -68.7436 -68.7403 -68.7402 -68.7380 -68.7375
    -8.5112  -8.2972   3.0140   3.2570   3.4215   3.6305   3.8909   3.9406
     4.3210   4.4496   4.6155   4.8288   5.0069   5.6447   6.0440   6.4555
     7.5620   7.7281  14.7295  16.4012  17.0463  17.5395  19.5419

     occupation numbers 
     1.0000   1.0000   1.0000   1.0000   1.0000   1.0000   1.0000   1.0000
     1.0000   1.0000   1.0000   1.0000   1.0000   1.0000   1.0000   1.0000
     1.0000   1.0000   1.0000   1.0000   1.0000   1.0000   1.0000   1.0000
     1.0000   1.0000   0.0000   0.0000   0.0000   0.0000   0.0000

          k =-0.5010 0.1012 0.1550 (  1915 PWs)   bands (ev):

  -114.5432-114.5431 -68.7443 -68.7437 -68.7403 -68.7401 -68.7379 -68.7375
    -8.4832  -8.3191   2.9617   3.1234   3.4171   3.6006   3.8042   3.8537
     4.3751   4.4886   4.6164   4.7999   5.1042   5.6117   6.2328   6.7714
     7.4291   7.7917  14.7353  16.0423  17.2673  17.6310  19.1648

     occupation numbers 
     1.0000   1.0000   1.0000   1.0000   1.0000   1.0000   1.0000   1.0000
     1.0000   1.0000   1.0000   1.0000   1.0000   1.0000   1.0000   1.0000
     1.0000   1.0000   1.0000   1.0000   1.0000   1.0000   1.0000   1.0000
     1.0000   1.0000   0.0000   0.0000   0.0000   0.0000   0.0000

          k =-0.5010 0.1012 0.2325 (  1914 PWs)   bands (ev):

  -114.5432-114.5431 -68.7442 -68.7439 -68.7402 -68.7401 -68.7378 -68.7376
    -8.4426  -8.3537   2.9083   2.9822   3.4507   3.5650   3.7506   3.7724
     4.4385   4.4955   4.6359   4.7406   5.2396   5.5068   6.5154   7.0572
     7.3118   7.7850  14.8622  15.5984  17.4764  17.6956  18.9675

     occupation numbers 
     1.0000   1.0000   1.0000   1.0000   1.0000   1.0000   1.0000   1.0000
     1.0000   1.0000   1.0000   1.0000   1.0000   1.0000   1.0000   1.0000
     1.0000   1.0000   1.0000   1.0000   1.0000   1.0000   1.0000   1.0000
     1.0000   1.0000   0.0000   0.0000   0.0000   0.0000   0.0000

          k =-0.5010 0.1012-0.3100 (  1912 PWs)   bands (ev):

  -114.5431-114.5431 -68.7441 -68.7441 -68.7402 -68.7402 -68.7377 -68.7377
    -8.3969  -8.3969   2.9053   2.9053   3.5102   3.5102   3.7363   3.7363
     4.4798   4.4798   4.6803   4.6803   5.3773   5.3773   6.8241   6.8241
     7.6007   7.6007  15.1658  15.1658  17.6376  17.6376  19.1159

     occupation numbers 
     1.0000   1.0000   1.0000   1.0000   1.0000   1.0000   1.0000   1.0000
     1.0000   1.0000   1.0000   1.0000   1.0000   1.0000   1.0000   1.0000
     1.0000   1.0000   1.0000   1.0000   1.0000   1.0000   1.0000   1.0000
     1.0000   1.0000   0.0000   0.0000   0.0000   0.0000   0.0000

          k =-0.5020 0.1975 0.0000 (  1910 PWs)   bands (ev):

  -114.5432-114.5431 -68.7445 -68.7435 -68.7405 -68.7404 -68.7377 -68.7372
    -8.5087  -8.2908   2.9577   3.2458   3.4032   3.7361   3.8539   3.9820
     4.3692   4.4887   4.6131   4.7273   5.0738   5.4508   6.0760   6.4827
     7.5740   7.9057  14.6834  16.1084  16.5674  17.4653  19.5919

     occupation numbers 
     1.0000   1.0000   1.0000   1.0000   1.0000   1.0000   1.0000   1.0000
     1.0000   1.0000   1.0000   1.0000   1.0000   1.0000   1.0000   1.0000
     1.0000   1.0000   1.0000   1.0000   1.0000   1.0000   1.0000   1.0000
     1.0000   1.0000   0.0000   0.0000   0.0000   0.0000   0.0000

          k =-0.5020 0.1975 0.0775 (  1910 PWs)   bands (ev):

  -114.5432-114.5431 -68.7445 -68.7436 -68.7405 -68.7404 -68.7377 -68.7373
    -8.4992  -8.2977   2.9335   3.1778   3.4159   3.7199   3.8304   3.9491
     4.4008   4.4962   4.6082   4.7317   5.0566   5.4457   6.2011   6.5673
     7.6225   7.8595  14.6091  15.9511  16.7389  17.5001  19.4940

     occupation numbers 
     1.0000   1.0000   1.0000   1.0000   1.0000   1.0000   1.0000   1.0000
     1.0000   1.0000   1.0000   1.0000   1.0000   1.0000   1.0000   1.0000
     1.0000   1.0000   1.0000   1.0000   1.0000   1.0000   1.0000   1.0000
     1.0000   1.0000   0.0000   0.0000   0.0000   0.0000   0.0000

          k =-0.5020 0.1975 0.1550 (  1918 PWs)   bands (ev):

  -114.5432-114.5431 -68.7445 -68.7438 -68.7404 -68.7403 -68.7377 -68.7373
    -8.4725  -8.3181   2.8740   3.0259   3.4545   3.6919   3.7844   3.8673
     4.4603   4.5102   4.6033   4.7281   5.0602   5.3912   6.5006   6.8239
     7.6302   7.7954  14.4983  15.6218  17.0308  17.5707  19.3449

     occupation numbers 
     1.0000   1.0000   1.0000   1.0000   1.0000   1.0000   1.0000   1.0000
     1.0000   1.0000   1.0000   1.0000   1.0000   1.0000   1.0000   1.0000
     1.0000   1.0000   1.0000   1.0000   1.0000   1.0000   1.0000   1.0000
     1.0000   1.0000   0.0000   0.0000   0.0000   0.0000   0.0000

          k =-0.5020 0.1975 0.2325 (  1914 PWs)   bands (ev):

  -114.5432-114.5431 -68.7443 -68.7440 -68.7403 -68.7403 -68.7376 -68.7374
    -8.4340  -8.3503   2.8181   2.8850   3.5197   3.6636   3.7455   3.7746
     4.5018   4.5201   4.6197   4.7013   5.1158   5.3003   6.8246   7.2054
     7.4266   7.7647  14.5323  15.1976  17.2922  17.5844  19.4129

     occupation numbers 
     1.0000   1.0000   1.0000   1.0000   1.0000   1.0000   1.0000   1.0000
     1.0000   1.0000   1.0000   1.0000   1.0000   1.0000   1.0000   1.0000
     1.0000   1.0000   1.0000   1.0000   1.0000   1.0000   1.0000   1.0000
     1.0000   1.0000   0.0000   0.0000   0.0000   0.0000   0.0000

          k =-0.5020 0.1975-0.3100 (  1912 PWs)   bands (ev):

  -114.5431-114.5431 -68.7442 -68.7442 -68.7403 -68.7403 -68.7375 -68.7375
    -8.3909  -8.3909   2.8126   2.8126   3.6022   3.6022   3.7321   3.7321
     4.5180   4.5180   4.6600   4.6600   5.2027   5.2027   7.1351   7.1351
     7.5691   7.5691  14.7873  14.7873  17.4840  17.4840  19.8033

     occupation numbers 
     1.0000   1.0000   1.0000   1.0000   1.0000   1.0000   1.0000   1.0000
     1.0000   1.0000   1.0000   1.0000   1.0000   1.0000   1.0000   1.0000
     1.0000   1.0000   1.0000   1.0000   1.0000   1.0000   1.0000   1.0000
     1.0000   1.0000   0.0000   0.0000   0.0000   0.0000   0.0000

          k =-0.4914-0.8612 0.0000 (  1926 PWs)   bands (ev):

  -114.5432-114.5431 -68.7446 -68.7436 -68.7407 -68.7405 -68.7377 -68.7372
    -8.5032  -8.2917   2.9375   3.1719   3.4188   3.7896   3.8157   3.9794
     4.3833   4.5289   4.6074   4.6831   5.1436   5.3518   6.1119   6.5369
     7.5904   7.9958  14.6767  15.7458  16.5534  17.4489  19.5463

     occupation numbers 
     1.0000   1.0000   1.0000   1.0000   1.0000   1.0000   1.0000   1.0000
     1.0000   1.0000   1.0000   1.0000   1.0000   1.0000   1.0000   1.0000
     1.0000   1.0000   1.0000   1.0000   1.0000   1.0000   1.0000   1.0000
     1.0000   1.0000   0.0000   0.0000   0.0000   0.0000   0.0000

          k =-0.4914-0.8612 0.0775 (  1916 PWs)   bands (ev):

  -114.5432-114.5431 -68.7445 -68.7436 -68.7406 -68.7405 -68.7377 -68.7372
    -8.4939  -8.2984   2.9107   3.1089   3.4346   3.7666   3.8001   3.9508
     4.4260   4.5301   4.5993   4.6841   5.1194   5.3234   6.2771   6.6029
     7.6464   7.9453  14.5645  15.6558  16.6913  17.4823  19.4877

     occupation numbers 
     1.0000   1.0000   1.0000   1.0000   1.0000   1.0000   1.0000   1.0000
     1.0000   1.0000   1.0000   1.0000   1.0000   1.0000   1.0000   1.0000
     1.0000   1.0000   1.0000   1.0000   1.0000   1.0000   1.0000   1.0000
     1.0000   1.0000   0.0000   0.0000   0.0000   0.0000   0.0000

          k =-0.4914-0.8612 0.1550 (  1916 PWs)   bands (ev):

  -114.5432-114.5431 -68.7445 -68.7438 -68.7405 -68.7404 -68.7376 -68.7373
    -8.4679  -8.3180   2.8460   2.9671   3.4814   3.7319   3.7653   3.8731
     4.5105   4.5339   4.5815   4.6834   5.0893   5.2572   6.6725   6.7825
     7.7425   7.8005  14.3904  15.3903  16.9715  17.5451  19.4358

     occupation numbers 
     1.0000   1.0000   1.0000   1.0000   1.0000   1.0000   1.0000   1.0000
     1.0000   1.0000   1.0000   1.0000   1.0000   1.0000   1.0000   1.0000
     1.0000   1.0000   1.0000   1.0000   1.0000   1.0000   1.0000   1.0000
     1.0000   1.0000   0.0000   0.0000   0.0000   0.0000   0.0000

          k =-0.4914-0.8612 0.2325 (  1912 PWs)   bands (ev):

  -114.5432-114.5431 -68.7443 -68.7440 -68.7404 -68.7403 -68.7375 -68.7373
    -8.4304  -8.3492   2.7845   2.8361   3.5570   3.7131   3.7318   3.7675
     4.5403   4.5637   4.5884   4.6727   5.0899   5.1841   7.0341   7.1342
     7.5804   7.7325  14.3791  14.9981  17.2367  17.5444  19.6288

     occupation numbers 
     1.0000   1.0000   1.0000   1.0000   1.0000   1.0000   1.0000   1.0000
     1.0000   1.0000   1.0000   1.0000   1.0000   1.0000   1.0000   1.0000
     1.0000   1.0000   1.0000   1.0000   1.0000   1.0000   1.0000   1.0000
     1.0000   1.0000   0.0000   0.0000   0.0000   0.0000   0.0000

          k =-0.4914-0.8612-0.3100 (  1908 PWs)   bands (ev):

  -114.5431-114.5431 -68.7442 -68.7442 -68.7403 -68.7403 -68.7374 -68.7374
    -8.3885  -8.3885   2.7723   2.7723   3.6555   3.6555   3.7137   3.7137
     4.5500   4.5500   4.6431   4.6431   5.1241   5.1241   7.3134   7.3134
     7.5224   7.5224  14.6082  14.6082  17.4344  17.4344  20.1605

     occupation numbers 
     1.0000   1.0000   1.0000   1.0000   1.0000   1.0000   1.0000   1.0000
     1.0000   1.0000   1.0000   1.0000   1.0000   1.0000   1.0000   1.0000
     1.0000   1.0000   1.0000   1.0000   1.0000   1.0000   1.0000   1.0000
     1.0000   1.0000   0.0000   0.0000   0.0000   0.0000   0.0000

     the Fermi energy is     9.4882 ev

     WARNING: integrated charge=    52.00007733, expected=    52.00000000

!    total energy              =   -1006.56801198 Ry
     estimated scf accuracy    <          8.5E-10 Ry
     smearing contrib. (-TS)   =       0.00000082 Ry
     internal energy E=F+TS    =   -1006.56801280 Ry

     The total energy is F=E-TS. E is the sum of the following terms:
     one-electron contribution =    -804.01042967 Ry
     hartree contribution      =     424.17150165 Ry
     xc contribution           =     -99.53059652 Ry
     ewald contribution        =    -508.17051544 Ry
     one-center paw contrib.   =     -19.02797283 Ry
      -> PAW hartree energy AE =      52.91169909 Ry
      -> PAW hartree energy PS =     -52.66028128 Ry
      -> PAW xc energy AE      =     -33.43571134 Ry
      -> PAW xc energy PS      =      14.15632070 Ry
      -> total E_H with PAW    =     424.42291947 Ry
      -> total E_XC with PAW   =    -118.80998716 Ry

     convergence has been achieved in  10 iterations

     Forces acting on atoms (cartesian axes, Ry/au):

     atom    1 type  2   force =     0.00589323   -0.00016264    0.00008001
     atom    2 type  2   force =    -0.00589323    0.00016264    0.00008001
     atom    3 type  1   force =     0.00666969   -0.00016812   -0.00008001
     atom    4 type  1   force =    -0.00666969    0.00016812   -0.00008001
     The non-local contrib.  to forces
     atom    1 type  2   force =     0.07335324   -0.00033017   -0.01224193
     atom    2 type  2   force =    -0.07335324    0.00033017   -0.01224193
     atom    3 type  1   force =    -0.02783049   -0.00002886    0.00410965
     atom    4 type  1   force =     0.02783049    0.00002886    0.00410965
     The ionic contribution  to forces
     atom    1 type  2   force =     0.70666521    0.00100317    0.08619178
     atom    2 type  2   force =    -0.70666521   -0.00100317    0.08619178
     atom    3 type  1   force =     0.56294916   -0.00042212   -0.08619178
     atom    4 type  1   force =    -0.56294916    0.00042212   -0.08619178
     The local contribution  to forces
     atom    1 type  2   force =    -0.77412233   -0.00083524   -0.07386906
     atom    2 type  2   force =     0.77412233    0.00083524   -0.07386906
     atom    3 type  1   force =    -0.52869172    0.00028238    0.08206311
     atom    4 type  1   force =     0.52869172   -0.00028238    0.08206311
     The core correction contribution to forces
     atom    1 type  2   force =     0.00000000    0.00000000    0.00000000
     atom    2 type  2   force =     0.00000000    0.00000000    0.00000000
     atom    3 type  1   force =     0.00024319    0.00000073   -0.00006222
     atom    4 type  1   force =    -0.00024319   -0.00000073   -0.00006222
     The Hubbard contrib.    to forces
     atom    1 type  2   force =     0.00000000    0.00000000    0.00000000
     atom    2 type  2   force =     0.00000000    0.00000000    0.00000000
     atom    3 type  1   force =     0.00000000    0.00000000    0.00000000
     atom    4 type  1   force =     0.00000000    0.00000000    0.00000000
     The SCF correction term to forces
     atom    1 type  2   force =    -0.00000289   -0.00000040   -0.00000436
     atom    2 type  2   force =     0.00000289    0.00000040   -0.00000436
     atom    3 type  1   force =    -0.00000045   -0.00000024   -0.00000236
     atom    4 type  1   force =     0.00000045    0.00000024   -0.00000236

     Total force =     0.012592     Total SCF correction =     0.000008


     Computing stress (Cartesian axis) and pressure

          total   stress  (Ry/bohr**3)                   (kbar)     P=       54.98
   0.00037464  -0.00012199   0.00000000           55.11      -17.95        0.00
  -0.00012199   0.00037242   0.00000000          -17.95       54.78        0.00
   0.00000000   0.00000000   0.00037424            0.00        0.00       55.05

     kinetic stress (kbar)  35031.94    -11.77      0.00
                              -11.77  35032.76      0.00
                                0.00      0.00  35061.18

     local   stress (kbar)  -5354.97   1328.54      0.00
                             1328.54  -5414.27     -0.00
                                0.00     -0.00  -9542.72

     nonloc. stress (kbar)   -723.19     -2.17      0.00
                               -2.17   -723.46      0.00
                                0.00      0.00   -736.04

     hartree stress (kbar)  64361.52   -546.07     -0.00
                             -546.07  64390.30      0.00
                               -0.00      0.00  66351.12

     exc-cor stress (kbar) -14219.14     -0.38     -0.00
                               -0.38 -14219.16      0.00
                               -0.00      0.00 -14219.27

     corecor stress (kbar)   -390.76      0.06     -0.00
                                0.06   -390.77      0.00
                               -0.00      0.00   -390.79

     ewald   stress (kbar) -78650.28   -786.15      0.00
                             -786.15 -78620.62      0.00
                                0.00      0.00 -76468.42

     hubbard stress (kbar)      0.00      0.00      0.00
                                0.00      0.00      0.00
                                0.00      0.00      0.00

     DFT-D   stress (kbar)      0.00      0.00      0.00
                                0.00      0.00      0.00
                                0.00      0.00      0.00

     XDM     stress (kbar)      0.00      0.00      0.00
                                0.00      0.00      0.00
                                0.00      0.00      0.00

     dft-nl  stress (kbar)      0.00      0.00      0.00
                                0.00      0.00      0.00
                                0.00      0.00      0.00

     TS-vdW  stress (kbar)      0.00      0.00      0.00
                                0.00      0.00      0.00
                                0.00      0.00      0.00

     MDB     stress (kbar)      0.00      0.00      0.00
                                0.00      0.00      0.00
                                0.00      0.00      0.00

     3D-RISM stress (kbar)      0.00      0.00      0.00
                                0.00      0.00      0.00
                                0.00      0.00      0.00


     Writing all to output data dir ./temp_hexag/aiida.save/ :
     XML data file, charge density, pseudopotentials, collected wavefunctions

     init_run     :    596.73s CPU     27.26s WALL (       1 calls)
     electrons    :  15832.14s CPU    749.82s WALL (       1 calls)
     forces       :    196.81s CPU      8.36s WALL (       1 calls)
     stress       :    178.80s CPU      8.11s WALL (       1 calls)

     Called by init_run:
     wfcinit      :    592.93s CPU     26.75s WALL (       1 calls)
     wfcinit:atom :      6.63s CPU      0.35s WALL (     370 calls)
     wfcinit:wfcr :    566.95s CPU     25.13s WALL (     370 calls)
     potinit      :      1.20s CPU      0.08s WALL (       1 calls)
     hinit0       :      1.08s CPU      0.22s WALL (       1 calls)

     Called by electrons:
     c_bands      :  13738.10s CPU    660.46s WALL (      10 calls)
     sum_band     :   2070.70s CPU     87.60s WALL (      10 calls)
     v_of_rho     :      5.67s CPU      0.23s WALL (      11 calls)
     v_h          :      0.98s CPU      0.03s WALL (      11 calls)
     v_xc         :      5.15s CPU      0.23s WALL (      13 calls)
     newd         :     11.81s CPU      1.22s WALL (      11 calls)
     PAW_pot      :      6.05s CPU      0.28s WALL (      11 calls)
     mix_rho      :      0.75s CPU      0.06s WALL (      10 calls)

     Called by c_bands:
     init_us_2    :    110.40s CPU      5.82s WALL (    8510 calls)
     cegterg      :  13476.38s CPU    647.11s WALL (    3700 calls)

     Called by sum_band:
     sum_band:wei :      1.12s CPU      0.06s WALL (      10 calls)
     sum_band:loo :   2063.89s CPU     86.25s WALL (      10 calls)
     sum_band:buf :     13.63s CPU      0.47s WALL (    3700 calls)
     sum_band:ini :     44.70s CPU      1.88s WALL (    3700 calls)
     sum_band:cal :    406.64s CPU     16.33s WALL (    3700 calls)
     sum_band:bec :     71.76s CPU      3.18s WALL (    3700 calls)
     addusdens    :      5.08s CPU      1.19s WALL (      10 calls)
                                        0.00s GPU  (      10 calls)
     addusd:skk   :      0.00s CPU      0.00s WALL (      20 calls)
                                        0.00s GPU  (      20 calls)

     Called by *egterg:
     cdiaghg      :    152.97s CPU     10.85s WALL (   13361 calls)
     cegterg:over :   1145.91s CPU     47.55s WALL (    9661 calls)
     cegterg:upda :    453.76s CPU     33.27s WALL (    9661 calls)
     cegterg:last :    380.34s CPU     52.62s WALL (    7365 calls)
     h_psi        :  10278.42s CPU    445.92s WALL (   13731 calls)
     s_psi        :    892.89s CPU     45.72s WALL (   13731 calls)
     g_psi        :     67.75s CPU      3.67s WALL (    9661 calls)

     Called by h_psi:
     h_psi:calbec :   1008.09s CPU     41.80s WALL (   13731 calls)
     vloc_psi     :   8027.79s CPU    354.94s WALL (   13731 calls)
     add_vuspsi   :   1145.26s CPU     44.11s WALL (   13731 calls)

     General routines
     calbec       :   1609.64s CPU     66.11s WALL (   19281 calls)
     fft          :      4.70s CPU      0.23s WALL (     166 calls)
     ffts         :      0.02s CPU      0.01s WALL (      21 calls)
     fftw         :   4130.69s CPU    188.40s WALL (  694460 calls)
     interpolate  :      0.71s CPU      0.02s WALL (      11 calls)

     Parallel routines

     PAW routines
     PAW_pot      :      6.05s CPU      0.28s WALL (      11 calls)
     PAW_symme    :      0.00s CPU      0.00s WALL (      21 calls)

     PWSCF        :      4h41m CPU  13m17.57s WALL


   This run was terminated on:  23:27:33  14Jun2024            

=------------------------------------------------------------------------------=
   JOB DONE.
=------------------------------------------------------------------------------=
