
     Program PWSCF v.7.3.1 starts on 12Jun2024 at  0:10:25 

     This program is part of the open-source Quantum ESPRESSO suite
     for quantum simulation of materials; please cite
         "P. Giannozzi et al., J. Phys.:Condens. Matter 21 395502 (2009);
         "P. Giannozzi et al., J. Phys.:Condens. Matter 29 465901 (2017);
         "P. Giannozzi et al., J. Chem. Phys. 152 154105 (2020);
          URL http://www.quantum-espresso.org", 
     in publications or presentations arising from this work. More details at
     http://www.quantum-espresso.org/quote

     Parallel version (MPI & OpenMP), running on      24 processor cores
     Number of MPI processes:                 1
     Threads/MPI process:                    24

     MPI processes distributed on     1 nodes
     4760 MiB available memory on the printing compute node when the environment starts

     Waiting for input...
     Reading input from standard input

     Current dimensions of program PWSCF are:
     Max number of different atomic species (ntypx) = 10
     Max number of k-points (npk) =  40000
     Max angular momentum in pseudopotentials (lmaxx) =  4
     file O.pbe-n-kjpaw_psl.0.1.UPF: wavefunction(s)  2P renormalized
     Message from routine setup:
     using ibrav=0 with symmetry is DISCOURAGED, use correct ibrav instead

     Subspace diagonalization in iterative solution of the eigenvalue problem:
     a serial algorithm will be used


     G-vector sticks info
     --------------------
     sticks:   dense  smooth     PW     G-vecs:    dense   smooth      PW
     Sum         859     433    139                33591    11909    2069

     Using Slab Decomposition



     bravais-lattice index     =            0
     lattice parameter (alat)  =       5.6283  a.u.
     unit-cell volume          =     249.0647 (a.u.)^3
     number of atoms/cell      =            4
     number of atomic types    =            2
     number of electrons       =        52.00
     number of Kohn-Sham states=           31
     kinetic-energy cutoff     =      50.0000  Ry
     charge density cutoff     =     400.0000  Ry
     scf convergence threshold =      2.0E-08
     mixing beta               =       0.4000
     number of iterations used =            8  plain     mixing
     Exchange-correlation= SLA  PW   PBE  PBE
                           (   1   4   3   4   0   0   0)

     celldm(1)=   5.628290  celldm(2)=   0.000000  celldm(3)=   0.000000
     celldm(4)=   0.000000  celldm(5)=   0.000000  celldm(6)=   0.000000

     crystal axes: (cart. coord. in units of alat)
               a(1) = (   1.000000   0.000000   0.000000 )  
               a(2) = (  -0.500000   0.866025   0.000000 )  
               a(3) = (   0.000000   0.000000   1.613066 )  

     reciprocal axes: (cart. coord. in units 2 pi/alat)
               b(1) = (  1.000000  0.577350 -0.000000 )  
               b(2) = (  0.000000  1.154701  0.000000 )  
               b(3) = (  0.000000 -0.000000  0.619937 )  


     PseudoPot. # 1 for O  read from file:
     ../SSSP_1.3.0_PBE_efficiency/O.pbe-n-kjpaw_psl.0.1.UPF
     MD5 check sum: 0234752ac141de4415c5fc33072bef88
     Pseudo is Projector augmented-wave + core cor, Zval =  6.0
     Generated using "atomic" code by A. Dal Corso  v.5.0.99 svn rev. 10869
     Shape of augmentation charge: BESSEL
     Using radial grid of 1095 points,  4 beta functions with: 
                l(1) =   0
                l(2) =   0
                l(3) =   1
                l(4) =   1
     Q(r) pseudized with 0 coefficients 


     PseudoPot. # 2 for Zn read from file:
     ../SSSP_1.3.0_PBE_efficiency/Zn_pbe_v1.uspp.F.UPF
     MD5 check sum: df62231357ef9e81f77b2b3087fa5675
     Pseudo is Ultrasoft, Zval = 20.0
     Generated by new atomic code, or converted to UPF format
     Using radial grid of  943 points,  6 beta functions with: 
                l(1) =   0
                l(2) =   0
                l(3) =   1
                l(4) =   1
                l(5) =   2
                l(6) =   2
     Q(r) pseudized with  8 coefficients,  rinner =    1.100   1.100   1.100
                                                       1.100   1.100

     atomic species   valence    mass     pseudopotential
     O                 6.00    15.99940     O ( 1.00)
     Zn               20.00    65.38000     Zn( 1.00)

     12 Sym. Ops. (no inversion) found ( 6 have fractional translation)


                                    s                        frac. trans.

      isym =  1     identity                                     

 cryst.   s( 1) = (     1          0          0      )
                  (     0          1          0      )
                  (     0          0          1      )

 cart.    s( 1) = (  1.0000000  0.0000000  0.0000000 )
                  (  0.0000000  1.0000000  0.0000000 )
                  (  0.0000000  0.0000000  1.0000000 )


      isym =  2     180 deg rotation - cart. axis [0,0,1]        

 cryst.   s( 2) = (    -1          0          0      )    f =(  0.0000000 )
                  (     0         -1          0      )       ( -0.0000000 )
                  (     0          0          1      )       (  0.5000000 )

 cart.    s( 2) = ( -1.0000000  0.0000000  0.0000000 )    f =(  0.0000000 )
                  (  0.0000000 -1.0000000  0.0000000 )       ( -0.0000000 )
                  (  0.0000000  0.0000000  1.0000000 )       (  0.8065331 )


      isym =  3      60 deg rotation - cryst. axis [0,0,1]       

 cryst.   s( 3) = (     1          1          0      )    f =( -0.0000000 )
                  (    -1          0          0      )       (  0.0000000 )
                  (     0          0          1      )       (  0.5000000 )

 cart.    s( 3) = (  0.5000000 -0.8660254  0.0000000 )    f =( -0.0000000 )
                  (  0.8660254  0.5000000  0.0000000 )       (  0.0000000 )
                  (  0.0000000  0.0000000  1.0000000 )       (  0.8065331 )


      isym =  4      60 deg rotation - cryst. axis [0,0,-1]      

 cryst.   s( 4) = (     0         -1          0      )    f =(  0.0000000 )
                  (     1          1          0      )       (  0.0000000 )
                  (     0          0          1      )       (  0.5000000 )

 cart.    s( 4) = (  0.5000000  0.8660254  0.0000000 )    f =( -0.0000000 )
                  ( -0.8660254  0.5000000  0.0000000 )       (  0.0000000 )
                  (  0.0000000  0.0000000  1.0000000 )       (  0.8065331 )


      isym =  5     120 deg rotation - cryst. axis [0,0,1]       

 cryst.   s( 5) = (     0          1          0      )
                  (    -1         -1          0      )
                  (     0          0          1      )

 cart.    s( 5) = ( -0.5000000 -0.8660254  0.0000000 )
                  (  0.8660254 -0.5000000  0.0000000 )
                  (  0.0000000  0.0000000  1.0000000 )


      isym =  6     120 deg rotation - cryst. axis [0,0,-1]      

 cryst.   s( 6) = (    -1         -1          0      )
                  (     1          0          0      )
                  (     0          0          1      )

 cart.    s( 6) = ( -0.5000000  0.8660254  0.0000000 )
                  ( -0.8660254 -0.5000000  0.0000000 )
                  (  0.0000000  0.0000000  1.0000000 )


      isym =  7     inv. 180 deg rotation - cart. axis [0,1,0]   

 cryst.   s( 7) = (     1          0          0      )    f =( -0.0000000 )
                  (    -1         -1          0      )       ( -0.0000000 )
                  (     0          0          1      )       (  0.5000000 )

 cart.    s( 7) = (  1.0000000  0.0000000  0.0000000 )    f =( -0.0000000 )
                  (  0.0000000 -1.0000000  0.0000000 )       ( -0.0000000 )
                  (  0.0000000  0.0000000  1.0000000 )       (  0.8065331 )


      isym =  8     inv. 180 deg rotation - cart. axis [1,0,0]   

 cryst.   s( 8) = (    -1          0          0      )
                  (     1          1          0      )
                  (     0          0          1      )

 cart.    s( 8) = ( -1.0000000  0.0000000  0.0000000 )
                  (  0.0000000  1.0000000  0.0000000 )
                  (  0.0000000  0.0000000  1.0000000 )


      isym =  9     inv. 180 deg rotation - cryst. axis [1,-1,0] 

 cryst.   s( 9) = (     0          1          0      )    f =(  0.0000000 )
                  (     1          0          0      )       (  0.0000000 )
                  (     0          0          1      )       (  0.5000000 )

 cart.    s( 9) = ( -0.5000000  0.8660254  0.0000000 )    f =(  0.0000000 )
                  (  0.8660254  0.5000000  0.0000000 )       (  0.0000000 )
                  (  0.0000000  0.0000000  1.0000000 )       (  0.8065331 )


      isym = 10     inv. 180 deg rotation - cryst. axis [2,1,0]  

 cryst.   s(10) = (    -1         -1          0      )    f =(  0.0000000 )
                  (     0          1          0      )       (  0.0000000 )
                  (     0          0          1      )       (  0.5000000 )

 cart.    s(10) = ( -0.5000000 -0.8660254  0.0000000 )    f =( -0.0000000 )
                  ( -0.8660254  0.5000000  0.0000000 )       (  0.0000000 )
                  (  0.0000000  0.0000000  1.0000000 )       (  0.8065331 )


      isym = 11     inv. 180 deg rotation - cryst. axis [0,1,0]  

 cryst.   s(11) = (     1          1          0      )
                  (     0         -1          0      )
                  (     0          0          1      )

 cart.    s(11) = (  0.5000000  0.8660254  0.0000000 )
                  (  0.8660254 -0.5000000  0.0000000 )
                  (  0.0000000  0.0000000  1.0000000 )


      isym = 12     inv. 180 deg rotation - cryst. axis [1,1,0]  

 cryst.   s(12) = (     0         -1          0      )
                  (    -1          0          0      )
                  (     0          0          1      )

 cart.    s(12) = (  0.5000000 -0.8660254  0.0000000 )
                  ( -0.8660254 -0.5000000  0.0000000 )
                  (  0.0000000  0.0000000  1.0000000 )


   Cartesian axes

     site n.     atom                  positions (alat units)
         1        Zn     tau(   1) = (   0.5000000   0.2886751   0.8074875  )
         2        Zn     tau(   2) = (  -0.0000000   0.5773503   0.0009545  )
         3        O      tau(   3) = (   0.5000000   0.2886751   1.4190438  )
         4        O      tau(   4) = (  -0.0000000   0.5773503   0.6125107  )

   Crystallographic axes

     site n.     atom                  positions (cryst. coord.)
         1        Zn     tau(   1) = (  0.6666667  0.3333333  0.5005917  )
         2        Zn     tau(   2) = (  0.3333333  0.6666667  0.0005917  )
         3        O      tau(   3) = (  0.6666667  0.3333333  0.8797183  )
         4        O      tau(   4) = (  0.3333333  0.6666667  0.3797183  )

     number of k points=    95  Marzari-Vanderbilt smearing, width (Ry)=  0.0147
                       cart. coord. in units 2pi/alat
        k(    1) = (   0.0000000   0.0000000   0.0000000), wk =   0.0017361
        k(    2) = (   0.0000000   0.0000000   0.0774922), wk =   0.0034722
        k(    3) = (   0.0000000   0.0000000   0.1549843), wk =   0.0034722
        k(    4) = (   0.0000000   0.0000000   0.2324765), wk =   0.0034722
        k(    5) = (   0.0000000   0.0000000  -0.3099687), wk =   0.0017361
        k(    6) = (   0.0000000   0.0962250   0.0000000), wk =   0.0104167
        k(    7) = (   0.0000000   0.0962250   0.0774922), wk =   0.0208333
        k(    8) = (   0.0000000   0.0962250   0.1549843), wk =   0.0208333
        k(    9) = (   0.0000000   0.0962250   0.2324765), wk =   0.0208333
        k(   10) = (   0.0000000   0.0962250  -0.3099687), wk =   0.0104167
        k(   11) = (   0.0000000   0.1924501   0.0000000), wk =   0.0104167
        k(   12) = (   0.0000000   0.1924501   0.0774922), wk =   0.0208333
        k(   13) = (   0.0000000   0.1924501   0.1549843), wk =   0.0208333
        k(   14) = (   0.0000000   0.1924501   0.2324765), wk =   0.0208333
        k(   15) = (   0.0000000   0.1924501  -0.3099687), wk =   0.0104167
        k(   16) = (   0.0000000   0.2886751   0.0000000), wk =   0.0104167
        k(   17) = (   0.0000000   0.2886751   0.0774922), wk =   0.0208333
        k(   18) = (   0.0000000   0.2886751   0.1549843), wk =   0.0208333
        k(   19) = (   0.0000000   0.2886751   0.2324765), wk =   0.0208333
        k(   20) = (   0.0000000   0.2886751  -0.3099687), wk =   0.0104167
        k(   21) = (   0.0000000   0.3849002   0.0000000), wk =   0.0104167
        k(   22) = (   0.0000000   0.3849002   0.0774922), wk =   0.0208333
        k(   23) = (   0.0000000   0.3849002   0.1549843), wk =   0.0208333
        k(   24) = (   0.0000000   0.3849002   0.2324765), wk =   0.0208333
        k(   25) = (   0.0000000   0.3849002  -0.3099687), wk =   0.0104167
        k(   26) = (   0.0000000   0.4811252   0.0000000), wk =   0.0104167
        k(   27) = (   0.0000000   0.4811252   0.0774922), wk =   0.0208333
        k(   28) = (   0.0000000   0.4811252   0.1549843), wk =   0.0208333
        k(   29) = (   0.0000000   0.4811252   0.2324765), wk =   0.0208333
        k(   30) = (   0.0000000   0.4811252  -0.3099687), wk =   0.0104167
        k(   31) = (   0.0000000  -0.5773503   0.0000000), wk =   0.0052083
        k(   32) = (   0.0000000  -0.5773503   0.0774922), wk =   0.0104167
        k(   33) = (   0.0000000  -0.5773503   0.1549843), wk =   0.0104167
        k(   34) = (   0.0000000  -0.5773503   0.2324765), wk =   0.0104167
        k(   35) = (   0.0000000  -0.5773503  -0.3099687), wk =   0.0052083
        k(   36) = (   0.0833333   0.1443376   0.0000000), wk =   0.0104167
        k(   37) = (   0.0833333   0.1443376   0.0774922), wk =   0.0208333
        k(   38) = (   0.0833333   0.1443376   0.1549843), wk =   0.0208333
        k(   39) = (   0.0833333   0.1443376   0.2324765), wk =   0.0208333
        k(   40) = (   0.0833333   0.1443376  -0.3099687), wk =   0.0104167
        k(   41) = (   0.0833333   0.2405626   0.0000000), wk =   0.0208333
        k(   42) = (   0.0833333   0.2405626   0.0774922), wk =   0.0416667
        k(   43) = (   0.0833333   0.2405626   0.1549843), wk =   0.0416667
        k(   44) = (   0.0833333   0.2405626   0.2324765), wk =   0.0416667
        k(   45) = (   0.0833333   0.2405626  -0.3099687), wk =   0.0208333
        k(   46) = (   0.0833333   0.3367877   0.0000000), wk =   0.0208333
        k(   47) = (   0.0833333   0.3367877   0.0774922), wk =   0.0416667
        k(   48) = (   0.0833333   0.3367877   0.1549843), wk =   0.0416667
        k(   49) = (   0.0833333   0.3367877   0.2324765), wk =   0.0416667
        k(   50) = (   0.0833333   0.3367877  -0.3099687), wk =   0.0208333
        k(   51) = (   0.0833333   0.4330127   0.0000000), wk =   0.0208333
        k(   52) = (   0.0833333   0.4330127   0.0774922), wk =   0.0416667
        k(   53) = (   0.0833333   0.4330127   0.1549843), wk =   0.0416667
        k(   54) = (   0.0833333   0.4330127   0.2324765), wk =   0.0416667
        k(   55) = (   0.0833333   0.4330127  -0.3099687), wk =   0.0208333
        k(   56) = (   0.0833333   0.5292377   0.0000000), wk =   0.0208333
        k(   57) = (   0.0833333   0.5292377   0.0774922), wk =   0.0416667
        k(   58) = (   0.0833333   0.5292377   0.1549843), wk =   0.0416667
        k(   59) = (   0.0833333   0.5292377   0.2324765), wk =   0.0416667
        k(   60) = (   0.0833333   0.5292377  -0.3099687), wk =   0.0208333
        k(   61) = (   0.1666667   0.2886751   0.0000000), wk =   0.0104167
        k(   62) = (   0.1666667   0.2886751   0.0774922), wk =   0.0208333
        k(   63) = (   0.1666667   0.2886751   0.1549843), wk =   0.0208333
        k(   64) = (   0.1666667   0.2886751   0.2324765), wk =   0.0208333
        k(   65) = (   0.1666667   0.2886751  -0.3099687), wk =   0.0104167
        k(   66) = (   0.1666667   0.3849002   0.0000000), wk =   0.0208333
        k(   67) = (   0.1666667   0.3849002   0.0774922), wk =   0.0416667
        k(   68) = (   0.1666667   0.3849002   0.1549843), wk =   0.0416667
        k(   69) = (   0.1666667   0.3849002   0.2324765), wk =   0.0416667
        k(   70) = (   0.1666667   0.3849002  -0.3099687), wk =   0.0208333
        k(   71) = (   0.1666667   0.4811252   0.0000000), wk =   0.0208333
        k(   72) = (   0.1666667   0.4811252   0.0774922), wk =   0.0416667
        k(   73) = (   0.1666667   0.4811252   0.1549843), wk =   0.0416667
        k(   74) = (   0.1666667   0.4811252   0.2324765), wk =   0.0416667
        k(   75) = (   0.1666667   0.4811252  -0.3099687), wk =   0.0208333
        k(   76) = (   0.1666667   0.5773503   0.0000000), wk =   0.0104167
        k(   77) = (   0.1666667   0.5773503   0.0774922), wk =   0.0208333
        k(   78) = (   0.1666667   0.5773503   0.1549843), wk =   0.0208333
        k(   79) = (   0.1666667   0.5773503   0.2324765), wk =   0.0208333
        k(   80) = (   0.1666667   0.5773503  -0.3099687), wk =   0.0104167
        k(   81) = (   0.2500000   0.4330127   0.0000000), wk =   0.0104167
        k(   82) = (   0.2500000   0.4330127   0.0774922), wk =   0.0208333
        k(   83) = (   0.2500000   0.4330127   0.1549843), wk =   0.0208333
        k(   84) = (   0.2500000   0.4330127   0.2324765), wk =   0.0208333
        k(   85) = (   0.2500000   0.4330127  -0.3099687), wk =   0.0104167
        k(   86) = (   0.2500000   0.5292377   0.0000000), wk =   0.0208333
        k(   87) = (   0.2500000   0.5292377   0.0774922), wk =   0.0416667
        k(   88) = (   0.2500000   0.5292377   0.1549843), wk =   0.0416667
        k(   89) = (   0.2500000   0.5292377   0.2324765), wk =   0.0416667
        k(   90) = (   0.2500000   0.5292377  -0.3099687), wk =   0.0208333
        k(   91) = (   0.3333333   0.5773503   0.0000000), wk =   0.0034722
        k(   92) = (   0.3333333   0.5773503   0.0774922), wk =   0.0069444
        k(   93) = (   0.3333333   0.5773503   0.1549843), wk =   0.0069444
        k(   94) = (   0.3333333   0.5773503   0.2324765), wk =   0.0069444
        k(   95) = (   0.3333333   0.5773503  -0.3099687), wk =   0.0034722

                       cryst. coord.
        k(    1) = (   0.0000000   0.0000000   0.0000000), wk =   0.0017361
        k(    2) = (   0.0000000   0.0000000   0.1250000), wk =   0.0034722
        k(    3) = (   0.0000000   0.0000000   0.2500000), wk =   0.0034722
        k(    4) = (   0.0000000   0.0000000   0.3750000), wk =   0.0034722
        k(    5) = (   0.0000000   0.0000000  -0.5000000), wk =   0.0017361
        k(    6) = (   0.0000000   0.0833333   0.0000000), wk =   0.0104167
        k(    7) = (   0.0000000   0.0833333   0.1250000), wk =   0.0208333
        k(    8) = (   0.0000000   0.0833333   0.2500000), wk =   0.0208333
        k(    9) = (   0.0000000   0.0833333   0.3750000), wk =   0.0208333
        k(   10) = (   0.0000000   0.0833333  -0.5000000), wk =   0.0104167
        k(   11) = (   0.0000000   0.1666667   0.0000000), wk =   0.0104167
        k(   12) = (   0.0000000   0.1666667   0.1250000), wk =   0.0208333
        k(   13) = (   0.0000000   0.1666667   0.2500000), wk =   0.0208333
        k(   14) = (   0.0000000   0.1666667   0.3750000), wk =   0.0208333
        k(   15) = (   0.0000000   0.1666667  -0.5000000), wk =   0.0104167
        k(   16) = (   0.0000000   0.2500000   0.0000000), wk =   0.0104167
        k(   17) = (   0.0000000   0.2500000   0.1250000), wk =   0.0208333
        k(   18) = (   0.0000000   0.2500000   0.2500000), wk =   0.0208333
        k(   19) = (   0.0000000   0.2500000   0.3750000), wk =   0.0208333
        k(   20) = (   0.0000000   0.2500000  -0.5000000), wk =   0.0104167
        k(   21) = (   0.0000000   0.3333333   0.0000000), wk =   0.0104167
        k(   22) = (   0.0000000   0.3333333   0.1250000), wk =   0.0208333
        k(   23) = (   0.0000000   0.3333333   0.2500000), wk =   0.0208333
        k(   24) = (   0.0000000   0.3333333   0.3750000), wk =   0.0208333
        k(   25) = (   0.0000000   0.3333333  -0.5000000), wk =   0.0104167
        k(   26) = (   0.0000000   0.4166667   0.0000000), wk =   0.0104167
        k(   27) = (   0.0000000   0.4166667   0.1250000), wk =   0.0208333
        k(   28) = (   0.0000000   0.4166667   0.2500000), wk =   0.0208333
        k(   29) = (   0.0000000   0.4166667   0.3750000), wk =   0.0208333
        k(   30) = (   0.0000000   0.4166667  -0.5000000), wk =   0.0104167
        k(   31) = (   0.0000000  -0.5000000   0.0000000), wk =   0.0052083
        k(   32) = (   0.0000000  -0.5000000   0.1250000), wk =   0.0104167
        k(   33) = (   0.0000000  -0.5000000   0.2500000), wk =   0.0104167
        k(   34) = (   0.0000000  -0.5000000   0.3750000), wk =   0.0104167
        k(   35) = (   0.0000000  -0.5000000  -0.5000000), wk =   0.0052083
        k(   36) = (   0.0833333   0.0833333   0.0000000), wk =   0.0104167
        k(   37) = (   0.0833333   0.0833333   0.1250000), wk =   0.0208333
        k(   38) = (   0.0833333   0.0833333   0.2500000), wk =   0.0208333
        k(   39) = (   0.0833333   0.0833333   0.3750000), wk =   0.0208333
        k(   40) = (   0.0833333   0.0833333  -0.5000000), wk =   0.0104167
        k(   41) = (   0.0833333   0.1666667   0.0000000), wk =   0.0208333
        k(   42) = (   0.0833333   0.1666667   0.1250000), wk =   0.0416667
        k(   43) = (   0.0833333   0.1666667   0.2500000), wk =   0.0416667
        k(   44) = (   0.0833333   0.1666667   0.3750000), wk =   0.0416667
        k(   45) = (   0.0833333   0.1666667  -0.5000000), wk =   0.0208333
        k(   46) = (   0.0833333   0.2500000   0.0000000), wk =   0.0208333
        k(   47) = (   0.0833333   0.2500000   0.1250000), wk =   0.0416667
        k(   48) = (   0.0833333   0.2500000   0.2500000), wk =   0.0416667
        k(   49) = (   0.0833333   0.2500000   0.3750000), wk =   0.0416667
        k(   50) = (   0.0833333   0.2500000  -0.5000000), wk =   0.0208333
        k(   51) = (   0.0833333   0.3333333   0.0000000), wk =   0.0208333
        k(   52) = (   0.0833333   0.3333333   0.1250000), wk =   0.0416667
        k(   53) = (   0.0833333   0.3333333   0.2500000), wk =   0.0416667
        k(   54) = (   0.0833333   0.3333333   0.3750000), wk =   0.0416667
        k(   55) = (   0.0833333   0.3333333  -0.5000000), wk =   0.0208333
        k(   56) = (   0.0833333   0.4166667   0.0000000), wk =   0.0208333
        k(   57) = (   0.0833333   0.4166667   0.1250000), wk =   0.0416667
        k(   58) = (   0.0833333   0.4166667   0.2500000), wk =   0.0416667
        k(   59) = (   0.0833333   0.4166667   0.3750000), wk =   0.0416667
        k(   60) = (   0.0833333   0.4166667  -0.5000000), wk =   0.0208333
        k(   61) = (   0.1666667   0.1666667   0.0000000), wk =   0.0104167
        k(   62) = (   0.1666667   0.1666667   0.1250000), wk =   0.0208333
        k(   63) = (   0.1666667   0.1666667   0.2500000), wk =   0.0208333
        k(   64) = (   0.1666667   0.1666667   0.3750000), wk =   0.0208333
        k(   65) = (   0.1666667   0.1666667  -0.5000000), wk =   0.0104167
        k(   66) = (   0.1666667   0.2500000   0.0000000), wk =   0.0208333
        k(   67) = (   0.1666667   0.2500000   0.1250000), wk =   0.0416667
        k(   68) = (   0.1666667   0.2500000   0.2500000), wk =   0.0416667
        k(   69) = (   0.1666667   0.2500000   0.3750000), wk =   0.0416667
        k(   70) = (   0.1666667   0.2500000  -0.5000000), wk =   0.0208333
        k(   71) = (   0.1666667   0.3333333   0.0000000), wk =   0.0208333
        k(   72) = (   0.1666667   0.3333333   0.1250000), wk =   0.0416667
        k(   73) = (   0.1666667   0.3333333   0.2500000), wk =   0.0416667
        k(   74) = (   0.1666667   0.3333333   0.3750000), wk =   0.0416667
        k(   75) = (   0.1666667   0.3333333  -0.5000000), wk =   0.0208333
        k(   76) = (   0.1666667   0.4166667   0.0000000), wk =   0.0104167
        k(   77) = (   0.1666667   0.4166667   0.1250000), wk =   0.0208333
        k(   78) = (   0.1666667   0.4166667   0.2500000), wk =   0.0208333
        k(   79) = (   0.1666667   0.4166667   0.3750000), wk =   0.0208333
        k(   80) = (   0.1666667   0.4166667  -0.5000000), wk =   0.0104167
        k(   81) = (   0.2500000   0.2500000   0.0000000), wk =   0.0104167
        k(   82) = (   0.2500000   0.2500000   0.1250000), wk =   0.0208333
        k(   83) = (   0.2500000   0.2500000   0.2500000), wk =   0.0208333
        k(   84) = (   0.2500000   0.2500000   0.3750000), wk =   0.0208333
        k(   85) = (   0.2500000   0.2500000  -0.5000000), wk =   0.0104167
        k(   86) = (   0.2500000   0.3333333   0.0000000), wk =   0.0208333
        k(   87) = (   0.2500000   0.3333333   0.1250000), wk =   0.0416667
        k(   88) = (   0.2500000   0.3333333   0.2500000), wk =   0.0416667
        k(   89) = (   0.2500000   0.3333333   0.3750000), wk =   0.0416667
        k(   90) = (   0.2500000   0.3333333  -0.5000000), wk =   0.0208333
        k(   91) = (   0.3333333   0.3333333   0.0000000), wk =   0.0034722
        k(   92) = (   0.3333333   0.3333333   0.1250000), wk =   0.0069444
        k(   93) = (   0.3333333   0.3333333   0.2500000), wk =   0.0069444
        k(   94) = (   0.3333333   0.3333333   0.3750000), wk =   0.0069444
        k(   95) = (   0.3333333   0.3333333  -0.5000000), wk =   0.0034722

     Dense  grid:    33591 G-vectors     FFT dimensions: (  36,  36,  60)

     Smooth grid:    11909 G-vectors     FFT dimensions: (  25,  25,  48)

     Dynamical RAM for                 wfc:       0.70 MB

     Dynamical RAM for     wfc (w. buffer):      67.52 MB

     Dynamical RAM for           str. fact:       1.03 MB

     Dynamical RAM for           local pot:       0.00 MB

     Dynamical RAM for          nlocal pot:       1.18 MB

     Dynamical RAM for                qrad:       3.21 MB

     Dynamical RAM for          rho,v,vnew:       3.32 MB

     Dynamical RAM for               rhoin:       1.11 MB

     Dynamical RAM for            rho*nmix:       8.20 MB

     Dynamical RAM for           G-vectors:       2.01 MB

     Dynamical RAM for          h,s,v(r/c):       0.18 MB

     Dynamical RAM for          <psi|beta>:       0.02 MB

     Dynamical RAM for                 psi:       1.41 MB

     Dynamical RAM for                hpsi:       1.41 MB

     Dynamical RAM for                spsi:       1.41 MB

     Dynamical RAM for      wfcinit/wfcrot:       1.57 MB

     Dynamical RAM for           addusdens:      96.36 MB

     Dynamical RAM for          addusforce:      97.65 MB

     Dynamical RAM for         addusstress:     103.02 MB

     Estimated static dynamical RAM per process >      83.88 MB

     Estimated max dynamical RAM per process >     195.11 MB

     Check: negative core charge=   -0.000003

     Initial potential from superposition of free atoms

     starting charge      51.9997, renormalised to      52.0000
     Starting wfcs are   34 randomized atomic wfcs
     Checking if some PAW data can be deallocated... 

     total cpu time spent up to now is        7.8 secs

     Self-consistent Calculation

     iteration #  1     ecut=    50.00 Ry     beta= 0.40
     Davidson diagonalization with overlap

---- Real-time Memory Report at c_bands before calling an iterative solver
           148 MiB given to the printing process from OS
             0 MiB allocation reported by mallinfo(arena+hblkhd)
          4668 MiB available memory on the node where the printing process lives
------------------
     ethr =  1.00E-02,  avg # of iterations =  3.0

     total cpu time spent up to now is       24.8 secs

     total energy              =   -1006.19186332 Ry
     estimated scf accuracy    <       0.83220425 Ry

     iteration #  2     ecut=    50.00 Ry     beta= 0.40
     Davidson diagonalization with overlap

---- Real-time Memory Report at c_bands before calling an iterative solver
           241 MiB given to the printing process from OS
             0 MiB allocation reported by mallinfo(arena+hblkhd)
          4629 MiB available memory on the node where the printing process lives
------------------
     ethr =  1.60E-03,  avg # of iterations =  2.1

     total cpu time spent up to now is       43.1 secs

     total energy              =   -1006.40423689 Ry
     estimated scf accuracy    <       0.05438052 Ry

     iteration #  3     ecut=    50.00 Ry     beta= 0.40
     Davidson diagonalization with overlap

---- Real-time Memory Report at c_bands before calling an iterative solver
           242 MiB given to the printing process from OS
             0 MiB allocation reported by mallinfo(arena+hblkhd)
          4625 MiB available memory on the node where the printing process lives
------------------
     ethr =  1.05E-04,  avg # of iterations =  3.3

     total cpu time spent up to now is       61.5 secs

     total energy              =   -1006.41131456 Ry
     estimated scf accuracy    <       0.00746743 Ry

     iteration #  4     ecut=    50.00 Ry     beta= 0.40
     Davidson diagonalization with overlap

---- Real-time Memory Report at c_bands before calling an iterative solver
           242 MiB given to the printing process from OS
             0 MiB allocation reported by mallinfo(arena+hblkhd)
          4625 MiB available memory on the node where the printing process lives
------------------
     ethr =  1.44E-05,  avg # of iterations =  2.7

     total cpu time spent up to now is       76.1 secs

     total energy              =   -1006.41130215 Ry
     estimated scf accuracy    <       0.00205955 Ry

     iteration #  5     ecut=    50.00 Ry     beta= 0.40
     Davidson diagonalization with overlap

---- Real-time Memory Report at c_bands before calling an iterative solver
           243 MiB given to the printing process from OS
             0 MiB allocation reported by mallinfo(arena+hblkhd)
          4624 MiB available memory on the node where the printing process lives
------------------
     ethr =  3.96E-06,  avg # of iterations =  1.8

     total cpu time spent up to now is       94.1 secs

     total energy              =   -1006.41139645 Ry
     estimated scf accuracy    <       0.00002068 Ry

     iteration #  6     ecut=    50.00 Ry     beta= 0.40
     Davidson diagonalization with overlap

---- Real-time Memory Report at c_bands before calling an iterative solver
           243 MiB given to the printing process from OS
             0 MiB allocation reported by mallinfo(arena+hblkhd)
          4584 MiB available memory on the node where the printing process lives
------------------
     ethr =  3.98E-08,  avg # of iterations =  3.1

     total cpu time spent up to now is      116.7 secs

     total energy              =   -1006.41140167 Ry
     estimated scf accuracy    <       0.00004240 Ry

     iteration #  7     ecut=    50.00 Ry     beta= 0.40
     Davidson diagonalization with overlap

---- Real-time Memory Report at c_bands before calling an iterative solver
           243 MiB given to the printing process from OS
             0 MiB allocation reported by mallinfo(arena+hblkhd)
          4583 MiB available memory on the node where the printing process lives
------------------
     ethr =  3.98E-08,  avg # of iterations =  2.0

     total cpu time spent up to now is      140.9 secs

     total energy              =   -1006.41140723 Ry
     estimated scf accuracy    <       0.00000086 Ry

     iteration #  8     ecut=    50.00 Ry     beta= 0.40
     Davidson diagonalization with overlap

---- Real-time Memory Report at c_bands before calling an iterative solver
           244 MiB given to the printing process from OS
             0 MiB allocation reported by mallinfo(arena+hblkhd)
          4580 MiB available memory on the node where the printing process lives
------------------
     ethr =  1.65E-09,  avg # of iterations =  2.1

     total cpu time spent up to now is      164.1 secs

     total energy              =   -1006.41140749 Ry
     estimated scf accuracy    <       0.00000032 Ry

     iteration #  9     ecut=    50.00 Ry     beta= 0.40
     Davidson diagonalization with overlap

---- Real-time Memory Report at c_bands before calling an iterative solver
           244 MiB given to the printing process from OS
             0 MiB allocation reported by mallinfo(arena+hblkhd)
          4583 MiB available memory on the node where the printing process lives
------------------
     ethr =  6.11E-10,  avg # of iterations =  2.0

     total cpu time spent up to now is      185.0 secs

     End of self-consistent calculation

          k = 0.0000 0.0000 0.0000 (  1473 PWs)   bands (ev):

  -110.3213-110.3206 -64.5450 -64.5337 -64.5337 -64.5325 -64.5312 -64.5312
    -6.8208  -5.6195   5.7601   6.3356   6.3356   6.4175   6.6178   6.6178
     8.3984   8.3984   8.7676   8.7676   9.1891  12.6030  12.6030  13.5340
    13.7354  13.7354  14.8704  19.8964  22.7446  27.9554  27.9554

     occupation numbers 
     1.0000   1.0000   1.0000   1.0000   1.0000   1.0000   1.0000   1.0000
     1.0000   1.0000   1.0000   1.0000   1.0000   1.0000   1.0000   1.0000
     1.0000   1.0000   1.0000   1.0000   1.0000   1.0000   1.0000   1.0000
     1.0001   1.0001   0.0003   0.0000   0.0000   0.0000   0.0000

          k = 0.0000 0.0000 0.0775 (  1491 PWs)   bands (ev):

  -110.3213-110.3206 -64.5445 -64.5337 -64.5337 -64.5333 -64.5314 -64.5314
    -6.7788  -5.6693   5.7365   6.3409   6.3409   6.3601   6.6008   6.6008
     8.4177   8.4177   8.7602   8.7602   9.3731  12.6457  12.6457  13.2119
    13.6926  13.6926  15.2576  19.7172  22.8885  27.9432  27.9433

     occupation numbers 
     1.0000   1.0000   1.0000   1.0000   1.0000   1.0000   1.0000   1.0000
     1.0000   1.0000   1.0000   1.0000   1.0000   1.0000   1.0000   1.0000
     1.0000   1.0000   1.0000   1.0000   1.0000   1.0000   1.0000   1.0000
     1.0000   1.0000   0.0000   0.0000   0.0000   0.0000   0.0000

          k = 0.0000 0.0000 0.1550 (  1472 PWs)   bands (ev):

  -110.3212-110.3207 -64.5431 -64.5346 -64.5333 -64.5333 -64.5316 -64.5316
    -6.6576  -5.8090   5.7057   6.2091   6.3583   6.3583   6.5558   6.5558
     8.4712   8.4712   8.7356   8.7356   9.8613  12.6185  12.7678  12.7678
    13.5704  13.5704  16.0176  19.2377  23.2866  27.1488  27.9421

     occupation numbers 
     1.0000   1.0000   1.0000   1.0000   1.0000   1.0000   1.0000   1.0000
     1.0000   1.0000   1.0000   1.0000   1.0000   1.0000   1.0000   1.0000
     1.0000   1.0000   1.0000   1.0000   1.0000   1.0000   1.0000   1.0000
     1.0000   1.0000   0.0000   0.0000   0.0000   0.0000   0.0000

          k = 0.0000 0.0000 0.2325 (  1496 PWs)   bands (ev):

  -110.3211-110.3208 -64.5413 -64.5368 -64.5330 -64.5330 -64.5321 -64.5321
    -6.4720  -6.0131   5.7320   6.0160   6.3903   6.3903   6.4965   6.4965
     8.5452   8.5452   8.6895   8.6895  10.5245  11.9557  12.9516  12.9516
    13.3866  13.3866  16.8792  18.5559  23.9072  25.8592  28.0222

     occupation numbers 
     1.0000   1.0000   1.0000   1.0000   1.0000   1.0000   1.0000   1.0000
     1.0000   1.0000   1.0000   1.0000   1.0000   1.0000   1.0000   1.0000
     1.0000   1.0000   1.0000   1.0000   1.0000   1.0000   1.0000   1.0000
     1.0000   1.0000   0.0000   0.0000   0.0000   0.0000   0.0000

          k = 0.0000 0.0000-0.3100 (  1520 PWs)   bands (ev):

  -110.3210-110.3210 -64.5392 -64.5392 -64.5326 -64.5326 -64.5326 -64.5326
    -6.2465  -6.2465   5.8413   5.8413   6.4378   6.4378   6.4378   6.4378
     8.6229   8.6229   8.6229   8.6229  11.2472  11.2472  13.1691  13.1691
    13.1691  13.1691  17.7481  17.7481  24.7614  24.7614  28.2329

     occupation numbers 
     1.0000   1.0000   1.0000   1.0000   1.0000   1.0000   1.0000   1.0000
     1.0000   1.0000   1.0000   1.0000   1.0000   1.0000   1.0000   1.0000
     1.0000   1.0000   1.0000   1.0000   1.0000   1.0000   1.0000   1.0000
     1.0000   1.0000   0.0000   0.0000   0.0000   0.0000   0.0000

          k = 0.0000 0.0962 0.0000 (  1493 PWs)   bands (ev):

  -110.3213-110.3206 -64.5448 -64.5342 -64.5339 -64.5329 -64.5320 -64.5315
    -6.7584  -5.5910   5.8353   6.2576   6.3680   6.4538   6.5989   6.6619
     8.3660   8.3928   8.7744   8.7890   9.1795  12.3010  12.4753  13.2951
    13.4740  13.6654  15.4094  20.2492  22.7112  26.9857  28.0630

     occupation numbers 
     1.0000   1.0000   1.0000   1.0000   1.0000   1.0000   1.0000   1.0000
     1.0000   1.0000   1.0000   1.0000   1.0000   1.0000   1.0000   1.0000
     1.0000   1.0000   1.0000   1.0000   1.0000   1.0000   1.0000   1.0000
     1.0000   1.0000   0.0000   0.0000   0.0000   0.0000   0.0000

          k = 0.0000 0.0962 0.0775 (  1479 PWs)   bands (ev):

  -110.3213-110.3206 -64.5442 -64.5340 -64.5338 -64.5334 -64.5319 -64.5315
    -6.7172  -5.6389   5.7970   6.2312   6.3738   6.4295   6.5888   6.6445
     8.3885   8.4123   8.7660   8.7793   9.3699  12.3445  12.5206  13.0324
    13.4870  13.6207  15.6770  20.0462  22.8683  27.0078  28.0510

     occupation numbers 
     1.0000   1.0000   1.0000   1.0000   1.0000   1.0000   1.0000   1.0000
     1.0000   1.0000   1.0000   1.0000   1.0000   1.0000   1.0000   1.0000
     1.0000   1.0000   1.0000   1.0000   1.0000   1.0000   1.0000   1.0000
     1.0000   1.0000   0.0000   0.0000   0.0000   0.0000   0.0000

          k = 0.0000 0.0962 0.1550 (  1487 PWs)   bands (ev):

  -110.3212-110.3207 -64.5430 -64.5349 -64.5338 -64.5335 -64.5321 -64.5318
    -6.5988  -5.7738   5.7351   6.1266   6.3925   6.4049   6.5560   6.5981
     8.4493   8.4658   8.7385   8.7491   9.8704  12.4501  12.5602  12.6500
    13.3705  13.4929  16.3186  19.5225  23.2840  26.9134  27.4443

     occupation numbers 
     1.0000   1.0000   1.0000   1.0000   1.0000   1.0000   1.0000   1.0000
     1.0000   1.0000   1.0000   1.0000   1.0000   1.0000   1.0000   1.0000
     1.0000   1.0000   1.0000   1.0000   1.0000   1.0000   1.0000   1.0000
     1.0000   1.0000   0.0000   0.0000   0.0000   0.0000   0.0000

          k = 0.0000 0.0962 0.2325 (  1496 PWs)   bands (ev):

  -110.3211-110.3208 -64.5412 -64.5370 -64.5334 -64.5331 -64.5325 -64.5322
    -6.4177  -5.9714   5.7298   5.9624   6.4175   6.4264   6.5065   6.5369
     8.5327   8.5406   8.6892   8.6955  10.5416  11.9330  12.6747  12.8440
    13.1593  13.3006  17.1270  18.8057  23.9090  25.8313  27.4236

     occupation numbers 
     1.0000   1.0000   1.0000   1.0000   1.0000   1.0000   1.0000   1.0000
     1.0000   1.0000   1.0000   1.0000   1.0000   1.0000   1.0000   1.0000
     1.0000   1.0000   1.0000   1.0000   1.0000   1.0000   1.0000   1.0000
     1.0000   1.0000   0.0000   0.0000   0.0000   0.0000   0.0000

          k = 0.0000 0.0962-0.3100 (  1502 PWs)   bands (ev):

  -110.3210-110.3210 -64.5392 -64.5392 -64.5329 -64.5329 -64.5327 -64.5327
    -6.1980  -6.1980   5.8120   5.8120   6.4556   6.4556   6.4761   6.4761
     8.6200   8.6200   8.6201   8.6201  11.2574  11.2574  12.9121  12.9121
    13.0727  13.0727  17.9832  17.9832  24.7551  24.7551  27.7082

     occupation numbers 
     1.0000   1.0000   1.0000   1.0000   1.0000   1.0000   1.0000   1.0000
     1.0000   1.0000   1.0000   1.0000   1.0000   1.0000   1.0000   1.0000
     1.0000   1.0000   1.0000   1.0000   1.0000   1.0000   1.0000   1.0000
     1.0000   1.0000   0.0000   0.0000   0.0000   0.0000   0.0000

          k = 0.0000 0.1925 0.0000 (  1483 PWs)   bands (ev):

  -110.3212-110.3205 -64.5440 -64.5355 -64.5343 -64.5337 -64.5333 -64.5318
    -6.5817  -5.5147   5.9515   6.1676   6.4540   6.4813   6.6244   6.7891
     8.2796   8.3925   8.7900   8.8273   9.1774  11.5351  12.1274  12.6146
    13.2855  13.4664  16.3788  21.1174  22.5927  25.5044  27.8581

     occupation numbers 
     1.0000   1.0000   1.0000   1.0000   1.0000   1.0000   1.0000   1.0000
     1.0000   1.0000   1.0000   1.0000   1.0000   1.0000   1.0000   1.0000
     1.0000   1.0000   1.0000   1.0000   1.0000   1.0000   1.0000   1.0000
     1.0000   1.0000   0.0000   0.0000   0.0000   0.0000   0.0000

          k = 0.0000 0.1925 0.0775 (  1489 PWs)   bands (ev):

  -110.3212-110.3205 -64.5436 -64.5354 -64.5345 -64.5342 -64.5330 -64.5320
    -6.5433  -5.5574   5.8956   6.0947   6.4614   6.4937   6.6201   6.7700
     8.3116   8.4111   8.7790   8.8214   9.3742  11.5824  12.1798  12.4973
    13.2422  13.4168  16.5439  20.8196  22.8147  25.5526  27.7544

     occupation numbers 
     1.0000   1.0000   1.0000   1.0000   1.0000   1.0000   1.0000   1.0000
     1.0000   1.0000   1.0000   1.0000   1.0000   1.0000   1.0000   1.0000
     1.0000   1.0000   1.0000   1.0000   1.0000   1.0000   1.0000   1.0000
     1.0000   1.0000   0.0000   0.0000   0.0000   0.0000   0.0000

          k = 0.0000 0.1925 0.1550 (  1499 PWs)   bands (ev):

  -110.3211-110.3206 -64.5427 -64.5359 -64.5351 -64.5340 -64.5332 -64.5323
    -6.4331  -5.6783   5.7754   5.9643   6.4847   6.4930   6.6027   6.7189
     8.3942   8.4629   8.7454   8.7846   9.8972  11.7135  12.2234  12.3285
    13.0539  13.2751  17.0133  20.1644  23.2855  25.6405  27.2414

     occupation numbers 
     1.0000   1.0000   1.0000   1.0000   1.0000   1.0000   1.0000   1.0000
     1.0000   1.0000   1.0000   1.0000   1.0000   1.0000   1.0000   1.0000
     1.0000   1.0000   1.0000   1.0000   1.0000   1.0000   1.0000   1.0000
     1.0000   1.0000   0.0000   0.0000   0.0000   0.0000   0.0000

          k = 0.0000 0.1925 0.2325 (  1500 PWs)   bands (ev):

  -110.3210-110.3207 -64.5412 -64.5376 -64.5346 -64.5335 -64.5335 -64.5326
    -6.2654  -5.8568   5.7008   5.8260   6.4987   6.5253   6.5665   6.6511
     8.5031   8.5362   8.6897   8.7137  10.5736  11.7207  12.0526  12.5493
    12.7141  13.0614  17.7068  19.3668  23.8903  25.3941  26.7061

     occupation numbers 
     1.0000   1.0000   1.0000   1.0000   1.0000   1.0000   1.0000   1.0000
     1.0000   1.0000   1.0000   1.0000   1.0000   1.0000   1.0000   1.0000
     1.0000   1.0000   1.0000   1.0000   1.0000   1.0000   1.0000   1.0000
     1.0000   1.0000   0.0000   0.0000   0.0000   0.0000   0.0000

          k = 0.0000 0.1925-0.3100 (  1504 PWs)   bands (ev):

  -110.3209-110.3209 -64.5394 -64.5394 -64.5341 -64.5341 -64.5331 -64.5331
    -6.0634  -6.0634   5.7226   5.7226   6.5260   6.5260   6.5826   6.5826
     8.6157   8.6157   8.6165   8.6165  11.2301  11.2301  12.3340  12.3340
    12.8068  12.8068  18.5216  18.5216  24.6328  24.6328  26.8916

     occupation numbers 
     1.0000   1.0000   1.0000   1.0000   1.0000   1.0000   1.0000   1.0000
     1.0000   1.0000   1.0000   1.0000   1.0000   1.0000   1.0000   1.0000
     1.0000   1.0000   1.0000   1.0000   1.0000   1.0000   1.0000   1.0000
     1.0000   1.0000   0.0000   0.0000   0.0000   0.0000   0.0000

          k = 0.0000 0.2887 0.0000 (  1483 PWs)   bands (ev):

  -110.3210-110.3204 -64.5430 -64.5375 -64.5358 -64.5349 -64.5340 -64.5323
    -6.3226  -5.4175   5.7981   6.2711   6.5353   6.5607   6.8219   6.9836
     8.1744   8.4300   8.8078   8.8094   9.2603  10.6165  11.6437  11.8966
    12.9673  13.1762  17.4841  22.0120  22.4053  24.2801  26.9440

     occupation numbers 
     1.0000   1.0000   1.0000   1.0000   1.0000   1.0000   1.0000   1.0000
     1.0000   1.0000   1.0000   1.0000   1.0000   1.0000   1.0000   1.0000
     1.0000   1.0000   1.0000   1.0000   1.0000   1.0000   1.0000   1.0000
     1.0000   1.0000   0.0000   0.0000   0.0000   0.0000   0.0000

          k = 0.0000 0.2887 0.0775 (  1487 PWs)   bands (ev):

  -110.3210-110.3204 -64.5428 -64.5373 -64.5363 -64.5348 -64.5340 -64.5324
    -6.2888  -5.4522   5.7654   6.1162   6.5715   6.5790   6.8062   6.9608
     8.2228   8.4457   8.7943   8.8450   9.4257  10.6715  11.7065  11.8123
    12.9504  13.1207  17.5711  21.4801  22.8371  24.3276  26.9056

     occupation numbers 
     1.0000   1.0000   1.0000   1.0000   1.0000   1.0000   1.0000   1.0000
     1.0000   1.0000   1.0000   1.0000   1.0000   1.0000   1.0000   1.0000
     1.0000   1.0000   1.0000   1.0000   1.0000   1.0000   1.0000   1.0000
     1.0000   1.0000   0.0000   0.0000   0.0000   0.0000   0.0000

          k = 0.0000 0.2887 0.1550 (  1484 PWs)   bands (ev):

  -110.3209-110.3205 -64.5422 -64.5375 -64.5367 -64.5345 -64.5339 -64.5327
    -6.1923  -5.5512   5.6825   5.8742   6.6040   6.6042   6.7639   6.8995
     8.3373   8.4898   8.7559   8.8292   9.9251  10.8334  11.6237  11.8824
    12.8104  12.9620  17.8613  20.7113  23.3446  24.4468  26.6505

     occupation numbers 
     1.0000   1.0000   1.0000   1.0000   1.0000   1.0000   1.0000   1.0000
     1.0000   1.0000   1.0000   1.0000   1.0000   1.0000   1.0000   1.0000
     1.0000   1.0000   1.0000   1.0000   1.0000   1.0000   1.0000   1.0000
     1.0000   1.0000   0.0000   0.0000   0.0000   0.0000   0.0000

          k = 0.0000 0.2887 0.2325 (  1492 PWs)   bands (ev):

  -110.3209-110.3206 -64.5414 -64.5389 -64.5360 -64.5344 -64.5340 -64.5332
    -6.0468  -5.6994   5.6043   5.6917   6.6207   6.6586   6.7077   6.8170
     8.4785   8.5537   8.6974   8.7441  10.5084  11.0423  11.5090  12.1391
    12.4436  12.7218  18.3817  19.8916  23.8232  24.4979  26.3712

     occupation numbers 
     1.0000   1.0000   1.0000   1.0000   1.0000   1.0000   1.0000   1.0000
     1.0000   1.0000   1.0000   1.0000   1.0000   1.0000   1.0000   1.0000
     1.0000   1.0000   1.0000   1.0000   1.0000   1.0000   1.0000   1.0000
     1.0000   1.0000   0.0000   0.0000   0.0000   0.0000   0.0000

          k = 0.0000 0.2887-0.3100 (  1494 PWs)   bands (ev):

  -110.3207-110.3207 -64.5402 -64.5402 -64.5351 -64.5351 -64.5336 -64.5336
    -5.8736  -5.8736   5.5992   5.5992   6.6554   6.6554   6.7321   6.7321
     8.6207   8.6207   8.6267   8.6267  10.9086  10.9086  11.9021  11.9021
    12.4338  12.4338  19.0877  19.0877  24.2585  24.2585  26.5121

     occupation numbers 
     1.0000   1.0000   1.0000   1.0000   1.0000   1.0000   1.0000   1.0000
     1.0000   1.0000   1.0000   1.0000   1.0000   1.0000   1.0000   1.0000
     1.0000   1.0000   1.0000   1.0000   1.0000   1.0000   1.0000   1.0000
     1.0000   1.0000   0.0000   0.0000   0.0000   0.0000   0.0000

          k = 0.0000 0.3849 0.0000 (  1499 PWs)   bands (ev):

  -110.3209-110.3204 -64.5419 -64.5395 -64.5381 -64.5357 -64.5349 -64.5329
    -6.0332  -5.3370   5.6674   6.1678   6.6486   6.7410   7.1257   7.2134
     8.1573   8.5224   8.7437   8.8269   9.4046   9.8309  11.1300  11.1448
    12.5570  12.8617  18.6278  21.9252  22.3797  23.7766  26.4195

     occupation numbers 
     1.0000   1.0000   1.0000   1.0000   1.0000   1.0000   1.0000   1.0000
     1.0000   1.0000   1.0000   1.0000   1.0000   1.0000   1.0000   1.0000
     1.0000   1.0000   1.0000   1.0000   1.0000   1.0000   1.0000   1.0000
     1.0000   1.0000   0.0000   0.0000   0.0000   0.0000   0.0000

          k = 0.0000 0.3849 0.0775 (  1498 PWs)   bands (ev):

  -110.3208-110.3204 -64.5421 -64.5391 -64.5384 -64.5355 -64.5348 -64.5330
    -6.0058  -5.3620   5.6353   6.0473   6.6641   6.7429   7.0764   7.1838
     8.2143   8.5330   8.8123   8.8341   9.4781   9.9250  11.0901  11.2053
    12.5776  12.8008  18.6339  21.4887  22.7727  23.7910  26.3609

     occupation numbers 
     1.0000   1.0000   1.0000   1.0000   1.0000   1.0000   1.0000   1.0000
     1.0000   1.0000   1.0000   1.0000   1.0000   1.0000   1.0000   1.0000
     1.0000   1.0000   1.0000   1.0000   1.0000   1.0000   1.0000   1.0000
     1.0000   1.0000   0.0000   0.0000   0.0000   0.0000   0.0000

          k = 0.0000 0.3849 0.1550 (  1489 PWs)   bands (ev):

  -110.3208-110.3204 -64.5422 -64.5395 -64.5378 -64.5351 -64.5347 -64.5333
    -5.9278  -5.4340   5.5581   5.8054   6.7104   6.7463   6.9805   7.1041
     8.3441   8.5631   8.7734   8.8726   9.7464  10.1938  11.0153  11.4127
    12.5437  12.6263  18.7175  20.8427  23.2721  23.8365  26.1693

     occupation numbers 
     1.0000   1.0000   1.0000   1.0000   1.0000   1.0000   1.0000   1.0000
     1.0000   1.0000   1.0000   1.0000   1.0000   1.0000   1.0000   1.0000
     1.0000   1.0000   1.0000   1.0000   1.0000   1.0000   1.0000   1.0000
     1.0000   1.0000   0.0000   0.0000   0.0000   0.0000   0.0000

          k = 0.0000 0.3849 0.2325 (  1476 PWs)   bands (ev):

  -110.3207-110.3205 -64.5420 -64.5405 -64.5367 -64.5349 -64.5346 -64.5337
    -5.8118  -5.5440   5.4892   5.5986   6.7655   6.7856   6.8870   6.9966
     8.4994   8.6085   8.7206   8.7877  10.0217  10.3700  11.2525  11.7084
    12.3012  12.3613  18.9972  20.1556  23.6623  23.8929  26.0931

     occupation numbers 
     1.0000   1.0000   1.0000   1.0000   1.0000   1.0000   1.0000   1.0000
     1.0000   1.0000   1.0000   1.0000   1.0000   1.0000   1.0000   1.0000
     1.0000   1.0000   1.0000   1.0000   1.0000   1.0000   1.0000   1.0000
     1.0000   1.0000   0.0000   0.0000   0.0000   0.0000   0.0000

          k = 0.0000 0.3849-0.3100 (  1478 PWs)   bands (ev):

  -110.3206-110.3206 -64.5414 -64.5414 -64.5356 -64.5356 -64.5342 -64.5342
    -5.6767  -5.6767   5.4912   5.4912   6.8127   6.8127   6.8845   6.8845
     8.6536   8.6536   8.6632   8.6632  10.2421  10.2421  11.8182  11.8182
    12.0409  12.0409  19.5037  19.5037  23.8647  23.8647  26.3930

     occupation numbers 
     1.0000   1.0000   1.0000   1.0000   1.0000   1.0000   1.0000   1.0000
     1.0000   1.0000   1.0000   1.0000   1.0000   1.0000   1.0000   1.0000
     1.0000   1.0000   1.0000   1.0000   1.0000   1.0000   1.0000   1.0000
     1.0000   1.0000   0.0000   0.0000   0.0000   0.0000   0.0000

          k = 0.0000 0.4811 0.0000 (  1493 PWs)   bands (ev):

  -110.3207-110.3204 -64.5415 -64.5403 -64.5396 -64.5360 -64.5356 -64.5333
    -5.7849  -5.3052   5.6658   5.9927   6.6982   6.8911   7.2820   7.4138
     8.3478   8.6402   8.8042   8.8462   9.1625   9.6819  10.4234  10.7111
    12.1702  12.6118  19.7216  21.6034  21.7002  23.8740  26.0128

     occupation numbers 
     1.0000   1.0000   1.0000   1.0000   1.0000   1.0000   1.0000   1.0000
     1.0000   1.0000   1.0000   1.0000   1.0000   1.0000   1.0000   1.0000
     1.0000   1.0000   1.0000   1.0000   1.0000   1.0000   1.0000   1.0000
     1.0000   1.0000   0.0000   0.0000   0.0000   0.0000   0.0000

          k = 0.0000 0.4811 0.0775 (  1500 PWs)   bands (ev):

  -110.3207-110.3204 -64.5421 -64.5402 -64.5393 -64.5360 -64.5357 -64.5334
    -5.7643  -5.3206   5.6250   5.9026   6.7179   6.8809   7.2328   7.3755
     8.3852   8.6453   8.8311   8.8966   9.1570   9.7475  10.4822  10.7996
    12.2151  12.5470  19.6123  21.1510  22.2380  23.8884  25.9179

     occupation numbers 
     1.0000   1.0000   1.0000   1.0000   1.0000   1.0000   1.0000   1.0000
     1.0000   1.0000   1.0000   1.0000   1.0000   1.0000   1.0000   1.0000
     1.0000   1.0000   1.0000   1.0000   1.0000   1.0000   1.0000   1.0000
     1.0000   1.0000   0.0000   0.0000   0.0000   0.0000   0.0000

          k = 0.0000 0.4811 0.1550 (  1493 PWs)   bands (ev):

  -110.3206-110.3204 -64.5427 -64.5410 -64.5381 -64.5356 -64.5354 -64.5337
    -5.7066  -5.3660   5.5281   5.7048   6.7766   6.8735   7.1303   7.2735
     8.4865   8.6604   8.7954   8.9356   9.2676   9.8056  10.7723  11.0381
    12.2689  12.3610  19.4361  20.6881  22.8251  23.9072  25.7609

     occupation numbers 
     1.0000   1.0000   1.0000   1.0000   1.0000   1.0000   1.0000   1.0000
     1.0000   1.0000   1.0000   1.0000   1.0000   1.0000   1.0000   1.0000
     1.0000   1.0000   1.0000   1.0000   1.0000   1.0000   1.0000   1.0000
     1.0000   1.0000   0.0000   0.0000   0.0000   0.0000   0.0000

          k = 0.0000 0.4811 0.2325 (  1482 PWs)   bands (ev):

  -110.3206-110.3205 -64.5428 -64.5419 -64.5368 -64.5354 -64.5351 -64.5341
    -5.6226  -5.4377   5.4403   5.5225   6.8714   6.8936   7.0278   7.1370
     8.6150   8.6846   8.7545   8.8548   9.4532   9.7447  11.2958  11.3686
    12.0776  12.1686  19.4415  20.1897  23.3141  23.8527  25.8230

     occupation numbers 
     1.0000   1.0000   1.0000   1.0000   1.0000   1.0000   1.0000   1.0000
     1.0000   1.0000   1.0000   1.0000   1.0000   1.0000   1.0000   1.0000
     1.0000   1.0000   1.0000   1.0000   1.0000   1.0000   1.0000   1.0000
     1.0000   1.0000   0.0000   0.0000   0.0000   0.0000   0.0000

          k = 0.0000 0.4811-0.3100 (  1484 PWs)   bands (ev):

  -110.3205-110.3205 -64.5426 -64.5426 -64.5359 -64.5359 -64.5346 -64.5346
    -5.5276  -5.5276   5.4284   5.4284   6.9462   6.9462   6.9957   6.9957
     8.7166   8.7166   8.7423   8.7423   9.6169   9.6169  11.7322  11.7322
    11.8233  11.8233  19.7229  19.7229  23.6576  23.6576  26.2573

     occupation numbers 
     1.0000   1.0000   1.0000   1.0000   1.0000   1.0000   1.0000   1.0000
     1.0000   1.0000   1.0000   1.0000   1.0000   1.0000   1.0000   1.0000
     1.0000   1.0000   1.0000   1.0000   1.0000   1.0000   1.0000   1.0000
     1.0000   1.0000   0.0000   0.0000   0.0000   0.0000   0.0000

          k = 0.0000-0.5774 0.0000 (  1484 PWs)   bands (ev):

  -110.3206-110.3204 -64.5417 -64.5402 -64.5400 -64.5363 -64.5360 -64.5333
    -5.6763  -5.3090   5.7823   5.8120   6.7131   6.9486   7.2942   7.4960
     8.4187   8.7003   8.8550   8.9525   9.1547   9.5569  10.1006  10.5408
    12.0001  12.5151  20.5926  20.8758  21.5392  23.9075  25.8661

     occupation numbers 
     1.0000   1.0000   1.0000   1.0000   1.0000   1.0000   1.0000   1.0000
     1.0000   1.0000   1.0000   1.0000   1.0000   1.0000   1.0000   1.0000
     1.0000   1.0000   1.0000   1.0000   1.0000   1.0000   1.0000   1.0000
     1.0000   1.0000   0.0000   0.0000   0.0000   0.0000   0.0000

          k = 0.0000-0.5774 0.0775 (  1482 PWs)   bands (ev):

  -110.3206-110.3204 -64.5422 -64.5405 -64.5391 -64.5361 -64.5359 -64.5335
    -5.6595  -5.3197   5.7301   5.7416   6.7345   6.9368   7.2561   7.4534
     8.4824   8.7030   8.8392   8.9561   9.1721   9.4937  10.3117  10.6362
    12.0512  12.4488  20.2177  20.7953  21.9820  23.9260  25.7620

     occupation numbers 
     1.0000   1.0000   1.0000   1.0000   1.0000   1.0000   1.0000   1.0000
     1.0000   1.0000   1.0000   1.0000   1.0000   1.0000   1.0000   1.0000
     1.0000   1.0000   1.0000   1.0000   1.0000   1.0000   1.0000   1.0000
     1.0000   1.0000   0.0000   0.0000   0.0000   0.0000   0.0000

          k = 0.0000-0.5774 0.1550 (  1494 PWs)   bands (ev):

  -110.3206-110.3204 -64.5430 -64.5415 -64.5381 -64.5357 -64.5357 -64.5339
    -5.6128  -5.3518   5.5860   5.6032   6.7980   6.9284   7.1693   7.3403
     8.6146   8.7111   8.8050   8.9484   9.2165   9.4109  10.7882  10.8899
    12.1363  12.2584  19.7728  20.5477  22.6420  23.9476  25.6008

     occupation numbers 
     1.0000   1.0000   1.0000   1.0000   1.0000   1.0000   1.0000   1.0000
     1.0000   1.0000   1.0000   1.0000   1.0000   1.0000   1.0000   1.0000
     1.0000   1.0000   1.0000   1.0000   1.0000   1.0000   1.0000   1.0000
     1.0000   1.0000   0.0000   0.0000   0.0000   0.0000   0.0000

          k = 0.0000-0.5774 0.2325 (  1496 PWs)   bands (ev):

  -110.3206-110.3204 -64.5433 -64.5424 -64.5369 -64.5357 -64.5353 -64.5343
    -5.5458  -5.4041   5.4518   5.4728   6.9007   6.9490   7.0765   7.1901
     8.7246   8.7427   8.7711   8.9115   9.2667   9.3542  11.2361  11.3480
    11.9679  12.1002  19.6132  20.1649  23.1978  23.8620  25.6971

     occupation numbers 
     1.0000   1.0000   1.0000   1.0000   1.0000   1.0000   1.0000   1.0000
     1.0000   1.0000   1.0000   1.0000   1.0000   1.0000   1.0000   1.0000
     1.0000   1.0000   1.0000   1.0000   1.0000   1.0000   1.0000   1.0000
     1.0000   1.0000   0.0000   0.0000   0.0000   0.0000   0.0000

          k = 0.0000-0.5774-0.3100 (  1488 PWs)   bands (ev):

  -110.3205-110.3205 -64.5430 -64.5430 -64.5360 -64.5360 -64.5348 -64.5348
    -5.4719  -5.4719   5.4098   5.4098   7.0001   7.0001   7.0359   7.0359
     8.7442   8.7442   8.8429   8.8429   9.3109   9.3109  11.6126  11.6126
    11.8290  11.8290  19.7860  19.7860  23.6049  23.6049  26.1793

     occupation numbers 
     1.0000   1.0000   1.0000   1.0000   1.0000   1.0000   1.0000   1.0000
     1.0000   1.0000   1.0000   1.0000   1.0000   1.0000   1.0000   1.0000
     1.0000   1.0000   1.0000   1.0000   1.0000   1.0000   1.0000   1.0000
     1.0000   1.0000   0.0000   0.0000   0.0000   0.0000   0.0000

          k = 0.0833 0.1443 0.0000 (  1481 PWs)   bands (ev):

  -110.3212-110.3205 -64.5442 -64.5350 -64.5342 -64.5332 -64.5331 -64.5318
    -6.6388  -5.5385   5.9650   6.1313   6.4400   6.5071   6.5711   6.7538
     8.3135   8.3833   8.7839   8.8216   9.1735  11.8234  12.1524  12.8380
    13.3514  13.5100  16.1085  20.8643  22.6381  25.9415  27.7517

     occupation numbers 
     1.0000   1.0000   1.0000   1.0000   1.0000   1.0000   1.0000   1.0000
     1.0000   1.0000   1.0000   1.0000   1.0000   1.0000   1.0000   1.0000
     1.0000   1.0000   1.0000   1.0000   1.0000   1.0000   1.0000   1.0000
     1.0000   1.0000   0.0000   0.0000   0.0000   0.0000   0.0000

          k = 0.0833 0.1443 0.0775 (  1488 PWs)   bands (ev):

  -110.3212-110.3205 -64.5438 -64.5349 -64.5343 -64.5339 -64.5327 -64.5319
    -6.5995  -5.5830   5.8968   6.1001   6.4417   6.4894   6.5800   6.7352
     8.3409   8.4039   8.7737   8.8119   9.3706  11.8705  12.1924  12.7063
    13.3131  13.4612  16.2971  20.6025  22.8329  25.9845  27.7525

     occupation numbers 
     1.0000   1.0000   1.0000   1.0000   1.0000   1.0000   1.0000   1.0000
     1.0000   1.0000   1.0000   1.0000   1.0000   1.0000   1.0000   1.0000
     1.0000   1.0000   1.0000   1.0000   1.0000   1.0000   1.0000   1.0000
     1.0000   1.0000   0.0000   0.0000   0.0000   0.0000   0.0000

          k = 0.0833 0.1443 0.1550 (  1495 PWs)   bands (ev):

  -110.3211-110.3206 -64.5428 -64.5355 -64.5346 -64.5339 -64.5328 -64.5322
    -6.4865  -5.7085   5.7774   6.0038   6.4566   6.4637   6.5744   6.6859
     8.4144   8.4587   8.7420   8.7753   9.8888  12.0084  12.2107  12.4945
    13.1424  13.3219  16.8125  19.9891  23.2850  26.0444  27.3769

     occupation numbers 
     1.0000   1.0000   1.0000   1.0000   1.0000   1.0000   1.0000   1.0000
     1.0000   1.0000   1.0000   1.0000   1.0000   1.0000   1.0000   1.0000
     1.0000   1.0000   1.0000   1.0000   1.0000   1.0000   1.0000   1.0000
     1.0000   1.0000   0.0000   0.0000   0.0000   0.0000   0.0000

          k = 0.0833 0.1443 0.2325 (  1505 PWs)   bands (ev):

  -110.3210-110.3207 -64.5412 -64.5374 -64.5342 -64.5336 -64.5332 -64.5326
    -6.3144  -5.8933   5.7175   5.8679   6.4631   6.4846   6.5487   6.6217
     8.5140   8.5342   8.6879   8.7092  10.5673  11.8342  12.2278  12.6173
    12.8520  13.1129  17.5415  19.2133  23.9024  25.6029  26.8598

     occupation numbers 
     1.0000   1.0000   1.0000   1.0000   1.0000   1.0000   1.0000   1.0000
     1.0000   1.0000   1.0000   1.0000   1.0000   1.0000   1.0000   1.0000
     1.0000   1.0000   1.0000   1.0000   1.0000   1.0000   1.0000   1.0000
     1.0000   1.0000   0.0000   0.0000   0.0000   0.0000   0.0000

          k = 0.0833 0.1443-0.3100 (  1508 PWs)   bands (ev):

  -110.3209-110.3209 -64.5394 -64.5394 -64.5337 -64.5337 -64.5330 -64.5330
    -6.1064  -6.1064   5.7543   5.7543   6.4845   6.4845   6.5622   6.5622
     8.6148   8.6148   8.6188   8.6188  11.2527  11.2527  12.5135  12.5135
    12.8686  12.8686  18.3716  18.3716  24.6946  24.6946  27.0889

     occupation numbers 
     1.0000   1.0000   1.0000   1.0000   1.0000   1.0000   1.0000   1.0000
     1.0000   1.0000   1.0000   1.0000   1.0000   1.0000   1.0000   1.0000
     1.0000   1.0000   1.0000   1.0000   1.0000   1.0000   1.0000   1.0000
     1.0000   1.0000   0.0000   0.0000   0.0000   0.0000   0.0000

          k = 0.0833 0.2406 0.0000 (  1487 PWs)   bands (ev):

  -110.3211-110.3204 -64.5434 -64.5366 -64.5354 -64.5343 -64.5338 -64.5323
    -6.4205  -5.4518   5.9222   6.1653   6.5171   6.5789   6.6662   6.9231
     8.2272   8.3920   8.7981   8.8344   9.2203  11.0366  11.6414  12.2289
    13.1060  13.2290  17.1180  21.7940  22.4996  24.7449  26.9487

     occupation numbers 
     1.0000   1.0000   1.0000   1.0000   1.0000   1.0000   1.0000   1.0000
     1.0000   1.0000   1.0000   1.0000   1.0000   1.0000   1.0000   1.0000
     1.0000   1.0000   1.0000   1.0000   1.0000   1.0000   1.0000   1.0000
     1.0000   1.0000   0.0000   0.0000   0.0000   0.0000   0.0000

          k = 0.0833 0.2406 0.0775 (  1484 PWs)   bands (ev):

  -110.3211-110.3205 -64.5431 -64.5365 -64.5357 -64.5345 -64.5335 -64.5324
    -6.3849  -5.4896   5.8847   6.0542   6.5135   6.5820   6.6799   6.9021
     8.2653   8.4151   8.7858   8.8485   9.4028  11.0890  11.6827  12.1543
    13.0765  13.1741  17.2342  21.3550  22.8347  24.7970  27.0028

     occupation numbers 
     1.0000   1.0000   1.0000   1.0000   1.0000   1.0000   1.0000   1.0000
     1.0000   1.0000   1.0000   1.0000   1.0000   1.0000   1.0000   1.0000
     1.0000   1.0000   1.0000   1.0000   1.0000   1.0000   1.0000   1.0000
     1.0000   1.0000   0.0000   0.0000   0.0000   0.0000   0.0000

          k = 0.0833 0.2406 0.1550 (  1490 PWs)   bands (ev):

  -110.3210-110.3205 -64.5424 -64.5369 -64.5360 -64.5345 -64.5335 -64.5327
    -6.2830  -5.5971   5.7778   5.8711   6.5235   6.5689   6.6860   6.8467
     8.3627   8.4696   8.7491   8.8186   9.9228  11.2428  11.7176  12.0696
    12.9089  13.0173  17.5943  20.6028  23.3306  24.9094  26.9447

     occupation numbers 
     1.0000   1.0000   1.0000   1.0000   1.0000   1.0000   1.0000   1.0000
     1.0000   1.0000   1.0000   1.0000   1.0000   1.0000   1.0000   1.0000
     1.0000   1.0000   1.0000   1.0000   1.0000   1.0000   1.0000   1.0000
     1.0000   1.0000   0.0000   0.0000   0.0000   0.0000   0.0000

          k = 0.0833 0.2406 0.2325 (  1497 PWs)   bands (ev):

  -110.3209-110.3207 -64.5413 -64.5383 -64.5354 -64.5344 -64.5337 -64.5331
    -6.1286  -5.7572   5.6723   5.7340   6.5379   6.5670   6.6810   6.7753
     8.4898   8.5411   8.6914   8.7366  10.5687  11.4023  11.6413  12.2200
    12.5391  12.7806  18.1866  19.7731  23.8661  24.8733  26.5316

     occupation numbers 
     1.0000   1.0000   1.0000   1.0000   1.0000   1.0000   1.0000   1.0000
     1.0000   1.0000   1.0000   1.0000   1.0000   1.0000   1.0000   1.0000
     1.0000   1.0000   1.0000   1.0000   1.0000   1.0000   1.0000   1.0000
     1.0000   1.0000   0.0000   0.0000   0.0000   0.0000   0.0000

          k = 0.0833 0.2406-0.3100 (  1496 PWs)   bands (ev):

  -110.3208-110.3208 -64.5398 -64.5398 -64.5348 -64.5348 -64.5335 -64.5335
    -5.9441  -5.9441   5.6571   5.6571   6.5563   6.5563   6.7110   6.7110
     8.6145   8.6145   8.6256   8.6256  11.1031  11.1031  12.0196  12.0196
    12.5053  12.5053  18.9421  18.9421  24.4419  24.4419  26.5643

     occupation numbers 
     1.0000   1.0000   1.0000   1.0000   1.0000   1.0000   1.0000   1.0000
     1.0000   1.0000   1.0000   1.0000   1.0000   1.0000   1.0000   1.0000
     1.0000   1.0000   1.0000   1.0000   1.0000   1.0000   1.0000   1.0000
     1.0000   1.0000   0.0000   0.0000   0.0000   0.0000   0.0000

          k = 0.0833 0.3368 0.0000 (  1490 PWs)   bands (ev):

  -110.3209-110.3204 -64.5424 -64.5386 -64.5372 -64.5353 -64.5346 -64.5329
    -6.1450  -5.3633   5.7614   6.2123   6.5619   6.7275   6.9493   7.1356
     8.1538   8.4518   8.7938   8.8190   9.3624  10.1869  11.1397  11.4858
    12.7397  12.8968  18.2547  22.0481  22.7274  23.8616  26.4501

     occupation numbers 
     1.0000   1.0000   1.0000   1.0000   1.0000   1.0000   1.0000   1.0000
     1.0000   1.0000   1.0000   1.0000   1.0000   1.0000   1.0000   1.0000
     1.0000   1.0000   1.0000   1.0000   1.0000   1.0000   1.0000   1.0000
     1.0000   1.0000   0.0000   0.0000   0.0000   0.0000   0.0000

          k = 0.0833 0.3368 0.0775 (  1487 PWs)   bands (ev):

  -110.3209-110.3204 -64.5423 -64.5383 -64.5375 -64.5353 -64.5344 -64.5330
    -6.1149  -5.3922   5.7289   6.0882   6.5746   6.7193   6.9257   7.1093
     8.2065   8.4804   8.8031   8.8573   9.4868  10.2556  11.1902  11.4349
    12.7410  12.8380  18.3017  21.6408  23.0335  23.8954  26.5405

     occupation numbers 
     1.0000   1.0000   1.0000   1.0000   1.0000   1.0000   1.0000   1.0000
     1.0000   1.0000   1.0000   1.0000   1.0000   1.0000   1.0000   1.0000
     1.0000   1.0000   1.0000   1.0000   1.0000   1.0000   1.0000   1.0000
     1.0000   1.0000   0.0000   0.0000   0.0000   0.0000   0.0000

          k = 0.0833 0.3368 0.1550 (  1485 PWs)   bands (ev):

  -110.3208-110.3205 -64.5421 -64.5386 -64.5373 -64.5352 -64.5342 -64.5332
    -6.0293  -5.4751   5.6478   5.8487   6.6036   6.7036   6.8780   7.0404
     8.3303   8.5301   8.7660   8.8662   9.8959  10.4691  11.1945  11.4780
    12.6319  12.6923  18.4865  20.9475  23.4511  23.9942  26.4060

     occupation numbers 
     1.0000   1.0000   1.0000   1.0000   1.0000   1.0000   1.0000   1.0000
     1.0000   1.0000   1.0000   1.0000   1.0000   1.0000   1.0000   1.0000
     1.0000   1.0000   1.0000   1.0000   1.0000   1.0000   1.0000   1.0000
     1.0000   1.0000   0.0000   0.0000   0.0000   0.0000   0.0000

          k = 0.0833 0.3368 0.2325 (  1494 PWs)   bands (ev):

  -110.3208-110.3206 -64.5417 -64.5398 -64.5364 -64.5351 -64.5343 -64.5337
    -5.9011  -5.6006   5.5697   5.6537   6.6391   6.6953   6.8462   6.9522
     8.4829   8.5866   8.7128   8.7764  10.3029  10.7082  11.2670  11.7302
    12.3490  12.4211  18.8792  20.1971  23.7999  24.0964  26.1830

     occupation numbers 
     1.0000   1.0000   1.0000   1.0000   1.0000   1.0000   1.0000   1.0000
     1.0000   1.0000   1.0000   1.0000   1.0000   1.0000   1.0000   1.0000
     1.0000   1.0000   1.0000   1.0000   1.0000   1.0000   1.0000   1.0000
     1.0000   1.0000   0.0000   0.0000   0.0000   0.0000   0.0000

          k = 0.0833 0.3368-0.3100 (  1494 PWs)   bands (ev):

  -110.3207-110.3207 -64.5408 -64.5408 -64.5356 -64.5356 -64.5341 -64.5341
    -5.7503  -5.7503   5.5597   5.5597   6.6738   6.6738   6.8747   6.8747
     8.6271   8.6271   8.6621   8.6621  10.5743  10.5743  11.7825  11.7825
    12.1137  12.1137  19.4761  19.4761  24.0405  24.0405  26.3119

     occupation numbers 
     1.0000   1.0000   1.0000   1.0000   1.0000   1.0000   1.0000   1.0000
     1.0000   1.0000   1.0000   1.0000   1.0000   1.0000   1.0000   1.0000
     1.0000   1.0000   1.0000   1.0000   1.0000   1.0000   1.0000   1.0000
     1.0000   1.0000   0.0000   0.0000   0.0000   0.0000   0.0000

          k = 0.0833 0.4330 0.0000 (  1488 PWs)   bands (ev):

  -110.3208-110.3203 -64.5413 -64.5400 -64.5390 -64.5360 -64.5354 -64.5333
    -5.8721  -5.3098   5.7069   6.1189   6.6361   6.8472   7.2372   7.3401
     8.2285   8.5134   8.8229   8.8444   9.3374   9.7212  10.6219  10.7901
    12.2998  12.5986  19.4008  21.7449  22.3214  23.8335  26.1921

     occupation numbers 
     1.0000   1.0000   1.0000   1.0000   1.0000   1.0000   1.0000   1.0000
     1.0000   1.0000   1.0000   1.0000   1.0000   1.0000   1.0000   1.0000
     1.0000   1.0000   1.0000   1.0000   1.0000   1.0000   1.0000   1.0000
     1.0000   1.0000   0.0000   0.0000   0.0000   0.0000   0.0000

          k = 0.0833 0.4330 0.0775 (  1491 PWs)   bands (ev):

  -110.3207-110.3204 -64.5419 -64.5397 -64.5390 -64.5359 -64.5353 -64.5335
    -5.8489  -5.3288   5.6705   6.0170   6.6494   6.8349   7.1802   7.3056
     8.2697   8.5692   8.8276   8.8992   9.3345   9.8477  10.6475  10.8306
    12.3284  12.5398  19.3620  21.4409  22.6259  23.8466  26.0852

     occupation numbers 
     1.0000   1.0000   1.0000   1.0000   1.0000   1.0000   1.0000   1.0000
     1.0000   1.0000   1.0000   1.0000   1.0000   1.0000   1.0000   1.0000
     1.0000   1.0000   1.0000   1.0000   1.0000   1.0000   1.0000   1.0000
     1.0000   1.0000   0.0000   0.0000   0.0000   0.0000   0.0000

          k = 0.0833 0.4330 0.1550 (  1487 PWs)   bands (ev):

  -110.3207-110.3204 -64.5423 -64.5403 -64.5380 -64.5358 -64.5350 -64.5337
    -5.7833  -5.3842   5.5832   5.7967   6.6897   6.8175   7.0811   7.2165
     8.3835   8.6246   8.7957   8.9339   9.4735  10.0668  10.7614  11.0328
    12.2779  12.4243  19.3316  20.9370  23.0816  23.8728  25.8615

     occupation numbers 
     1.0000   1.0000   1.0000   1.0000   1.0000   1.0000   1.0000   1.0000
     1.0000   1.0000   1.0000   1.0000   1.0000   1.0000   1.0000   1.0000
     1.0000   1.0000   1.0000   1.0000   1.0000   1.0000   1.0000   1.0000
     1.0000   1.0000   0.0000   0.0000   0.0000   0.0000   0.0000

          k = 0.0833 0.4330 0.2325 (  1482 PWs)   bands (ev):

  -110.3206-110.3205 -64.5424 -64.5412 -64.5368 -64.5356 -64.5349 -64.5341
    -5.6870  -5.4704   5.5036   5.5987   6.7479   6.8135   7.0103   7.1055
     8.5279   8.6603   8.7586   8.8452   9.7000  10.0600  11.1828  11.3679
    12.0217  12.2539  19.4699  20.3758  23.4738  23.8616  25.7980

     occupation numbers 
     1.0000   1.0000   1.0000   1.0000   1.0000   1.0000   1.0000   1.0000
     1.0000   1.0000   1.0000   1.0000   1.0000   1.0000   1.0000   1.0000
     1.0000   1.0000   1.0000   1.0000   1.0000   1.0000   1.0000   1.0000
     1.0000   1.0000   0.0000   0.0000   0.0000   0.0000   0.0000

          k = 0.0833 0.4330-0.3100 (  1482 PWs)   bands (ev):

  -110.3205-110.3205 -64.5420 -64.5420 -64.5359 -64.5359 -64.5346 -64.5346
    -5.5766  -5.5766   5.4972   5.4972   6.7980   6.7980   7.0174   7.0174
     8.6515   8.6515   8.7513   8.7513   9.9051   9.9051  11.5931  11.5931
    11.9048  11.9048  19.8434  19.8434  23.7381  23.7381  26.0853

     occupation numbers 
     1.0000   1.0000   1.0000   1.0000   1.0000   1.0000   1.0000   1.0000
     1.0000   1.0000   1.0000   1.0000   1.0000   1.0000   1.0000   1.0000
     1.0000   1.0000   1.0000   1.0000   1.0000   1.0000   1.0000   1.0000
     1.0000   1.0000   0.0000   0.0000   0.0000   0.0000   0.0000

          k = 0.0833 0.5292 0.0000 (  1490 PWs)   bands (ev):

  -110.3206-110.3204 -64.5415 -64.5401 -64.5398 -64.5365 -64.5361 -64.5336
    -5.6821  -5.3062   5.7818   5.9616   6.6784   6.9154   7.3131   7.4930
     8.3965   8.5792   8.8600   8.9422   9.1668   9.6848  10.0176  10.5486
    11.9499  12.4179  20.4596  21.4639  21.5410  23.9044  25.9017

     occupation numbers 
     1.0000   1.0000   1.0000   1.0000   1.0000   1.0000   1.0000   1.0000
     1.0000   1.0000   1.0000   1.0000   1.0000   1.0000   1.0000   1.0000
     1.0000   1.0000   1.0000   1.0000   1.0000   1.0000   1.0000   1.0000
     1.0000   1.0000   0.0000   0.0000   0.0000   0.0000   0.0000

          k = 0.0833 0.5292 0.0775 (  1488 PWs)   bands (ev):

  -110.3206-110.3204 -64.5420 -64.5403 -64.5391 -64.5363 -64.5360 -64.5337
    -5.6650  -5.3173   5.7337   5.8832   6.6925   6.9040   7.2730   7.4462
     8.4411   8.6151   8.8480   8.9718   9.1591   9.6507  10.1844  10.6535
    11.9922  12.3588  20.2421  21.1404  22.0687  23.9261  25.7597

     occupation numbers 
     1.0000   1.0000   1.0000   1.0000   1.0000   1.0000   1.0000   1.0000
     1.0000   1.0000   1.0000   1.0000   1.0000   1.0000   1.0000   1.0000
     1.0000   1.0000   1.0000   1.0000   1.0000   1.0000   1.0000   1.0000
     1.0000   1.0000   0.0000   0.0000   0.0000   0.0000   0.0000

          k = 0.0833 0.5292 0.1550 (  1485 PWs)   bands (ev):

  -110.3206-110.3204 -64.5427 -64.5412 -64.5380 -64.5360 -64.5356 -64.5340
    -5.6174  -5.3504   5.6172   5.7091   6.7374   6.8902   7.1904   7.3326
     8.5384   8.6651   8.8296   8.9985   9.1889   9.5860  10.5690  10.9596
    12.0015  12.2395  19.9181  20.8189  22.6828  23.9557  25.5123

     occupation numbers 
     1.0000   1.0000   1.0000   1.0000   1.0000   1.0000   1.0000   1.0000
     1.0000   1.0000   1.0000   1.0000   1.0000   1.0000   1.0000   1.0000
     1.0000   1.0000   1.0000   1.0000   1.0000   1.0000   1.0000   1.0000
     1.0000   1.0000   0.0000   0.0000   0.0000   0.0000   0.0000

          k = 0.0833 0.5292 0.2325 (  1483 PWs)   bands (ev):

  -110.3205-110.3204 -64.5430 -64.5421 -64.5370 -64.5357 -64.5353 -64.5343
    -5.5491  -5.4042   5.5058   5.5490   6.8080   6.8879   7.1210   7.2017
     8.6295   8.6879   8.8355   8.9530   9.2918   9.5034  10.9976  11.4144
    11.7736  12.1406  19.8173  20.4110  23.2100  23.8732  25.5099

     occupation numbers 
     1.0000   1.0000   1.0000   1.0000   1.0000   1.0000   1.0000   1.0000
     1.0000   1.0000   1.0000   1.0000   1.0000   1.0000   1.0000   1.0000
     1.0000   1.0000   1.0000   1.0000   1.0000   1.0000   1.0000   1.0000
     1.0000   1.0000   0.0000   0.0000   0.0000   0.0000   0.0000

          k = 0.0833 0.5292-0.3100 (  1482 PWs)   bands (ev):

  -110.3205-110.3205 -64.5428 -64.5428 -64.5361 -64.5361 -64.5348 -64.5348
    -5.4737  -5.4737   5.4737   5.4737   6.8714   6.8714   7.1138   7.1138
     8.6787   8.6787   8.8848   8.8848   9.4040   9.4040  11.3998  11.3998
    11.8756  11.8756  20.0164  20.0164  23.6112  23.6112  25.8922

     occupation numbers 
     1.0000   1.0000   1.0000   1.0000   1.0000   1.0000   1.0000   1.0000
     1.0000   1.0000   1.0000   1.0000   1.0000   1.0000   1.0000   1.0000
     1.0000   1.0000   1.0000   1.0000   1.0000   1.0000   1.0000   1.0000
     1.0000   1.0000   0.0000   0.0000   0.0000   0.0000   0.0000

          k = 0.1667 0.2887 0.0000 (  1489 PWs)   bands (ev):

  -110.3209-110.3204 -64.5425 -64.5379 -64.5373 -64.5350 -64.5345 -64.5330
    -6.1850  -5.3739   5.8669   6.1412   6.6455   6.6599   6.8403   7.1146
     8.1793   8.4115   8.8120   8.8234   9.3475  10.4577  10.9554  11.6456
    12.8221  12.8419  18.1619  22.0861  22.9633  24.0068  26.1328

     occupation numbers 
     1.0000   1.0000   1.0000   1.0000   1.0000   1.0000   1.0000   1.0000
     1.0000   1.0000   1.0000   1.0000   1.0000   1.0000   1.0000   1.0000
     1.0000   1.0000   1.0000   1.0000   1.0000   1.0000   1.0000   1.0000
     1.0000   1.0000   0.0000   0.0000   0.0000   0.0000   0.0000

          k = 0.1667 0.2887 0.0775 (  1487 PWs)   bands (ev):

  -110.3209-110.3204 -64.5424 -64.5376 -64.5375 -64.5353 -64.5341 -64.5332
    -6.1540  -5.4042   5.8326   6.0438   6.6231   6.6305   6.8512   7.0901
     8.2232   8.4534   8.7989   8.8724   9.4850  10.5247  11.0053  11.5882
    12.7773  12.8197  18.2267  21.7210  23.1807  24.0583  26.3297

     occupation numbers 
     1.0000   1.0000   1.0000   1.0000   1.0000   1.0000   1.0000   1.0000
     1.0000   1.0000   1.0000   1.0000   1.0000   1.0000   1.0000   1.0000
     1.0000   1.0000   1.0000   1.0000   1.0000   1.0000   1.0000   1.0000
     1.0000   1.0000   0.0000   0.0000   0.0000   0.0000   0.0000

          k = 0.1667 0.2887 0.1550 (  1482 PWs)   bands (ev):

  -110.3209-110.3205 -64.5421 -64.5383 -64.5370 -64.5354 -64.5339 -64.5334
    -6.0657  -5.4909   5.7442   5.8347   6.5992   6.6046   6.8477   7.0260
     8.3367   8.5174   8.7627   8.8694   9.9327  10.7425  11.0792  11.5211
    12.5953  12.7250  18.4541  21.0280  23.5133  24.1821  26.6539

     occupation numbers 
     1.0000   1.0000   1.0000   1.0000   1.0000   1.0000   1.0000   1.0000
     1.0000   1.0000   1.0000   1.0000   1.0000   1.0000   1.0000   1.0000
     1.0000   1.0000   1.0000   1.0000   1.0000   1.0000   1.0000   1.0000
     1.0000   1.0000   0.0000   0.0000   0.0000   0.0000   0.0000

          k = 0.1667 0.2887 0.2325 (  1487 PWs)   bands (ev):

  -110.3208-110.3206 -64.5415 -64.5394 -64.5361 -64.5353 -64.5340 -64.5338
    -5.9334  -5.6217   5.6476   5.6655   6.5934   6.5996   6.8454   6.9459
     8.4842   8.5801   8.7108   8.7776  10.4158  10.9761  11.1866  11.6601
    12.3311  12.4193  18.8910  20.2614  23.8488  24.2672  26.3014

     occupation numbers 
     1.0000   1.0000   1.0000   1.0000   1.0000   1.0000   1.0000   1.0000
     1.0000   1.0000   1.0000   1.0000   1.0000   1.0000   1.0000   1.0000
     1.0000   1.0000   1.0000   1.0000   1.0000   1.0000   1.0000   1.0000
     1.0000   1.0000   0.0000   0.0000   0.0000   0.0000   0.0000

          k = 0.1667 0.2887-0.3100 (  1482 PWs)   bands (ev):

  -110.3207-110.3207 -64.5405 -64.5405 -64.5354 -64.5354 -64.5341 -64.5341
    -5.7773  -5.7773   5.6053   5.6053   6.5971   6.5971   6.8777   6.8777
     8.6224   8.6224   8.6641   8.6641  10.7422  10.7422  11.7374  11.7374
    12.0914  12.0914  19.5195  19.5195  24.1477  24.1477  26.2075

     occupation numbers 
     1.0000   1.0000   1.0000   1.0000   1.0000   1.0000   1.0000   1.0000
     1.0000   1.0000   1.0000   1.0000   1.0000   1.0000   1.0000   1.0000
     1.0000   1.0000   1.0000   1.0000   1.0000   1.0000   1.0000   1.0000
     1.0000   1.0000   0.0000   0.0000   0.0000   0.0000   0.0000

          k = 0.1667 0.3849 0.0000 (  1493 PWs)   bands (ev):

  -110.3208-110.3204 -64.5415 -64.5393 -64.5387 -64.5360 -64.5353 -64.5338
    -5.9221  -5.3144   5.8453   6.1438   6.6489   6.8027   7.1189   7.3060
     8.1595   8.4436   8.8385   8.8733   9.4377   9.9260  10.3927  10.9362
    12.3869  12.4793  19.3395  21.8106  23.2140  23.7699  26.0164

     occupation numbers 
     1.0000   1.0000   1.0000   1.0000   1.0000   1.0000   1.0000   1.0000
     1.0000   1.0000   1.0000   1.0000   1.0000   1.0000   1.0000   1.0000
     1.0000   1.0000   1.0000   1.0000   1.0000   1.0000   1.0000   1.0000
     1.0000   1.0000   0.0000   0.0000   0.0000   0.0000   0.0000

          k = 0.1667 0.3849 0.0775 (  1491 PWs)   bands (ev):

  -110.3208-110.3204 -64.5417 -64.5392 -64.5385 -64.5363 -64.5350 -64.5339
    -5.8974  -5.3354   5.8069   6.0644   6.6323   6.7647   7.0792   7.2748
     8.2088   8.5253   8.8272   8.9329   9.4627  10.0544  10.4655  10.8927
    12.3442  12.4796  19.3497  21.6319  23.3002  23.7842  26.1470

     occupation numbers 
     1.0000   1.0000   1.0000   1.0000   1.0000   1.0000   1.0000   1.0000
     1.0000   1.0000   1.0000   1.0000   1.0000   1.0000   1.0000   1.0000
     1.0000   1.0000   1.0000   1.0000   1.0000   1.0000   1.0000   1.0000
     1.0000   1.0000   0.0000   0.0000   0.0000   0.0000   0.0000

          k = 0.1667 0.3849 0.1550 (  1483 PWs)   bands (ev):

  -110.3207-110.3204 -64.5419 -64.5398 -64.5376 -64.5363 -64.5346 -64.5341
    -5.8276  -5.3963   5.7122   5.8677   6.6191   6.7096   7.0280   7.1951
     8.3340   8.6091   8.7998   8.9529   9.6625  10.3558  10.6498  10.8726
    12.1588  12.4695  19.4271  21.1945  23.4915  23.8262  25.9918

     occupation numbers 
     1.0000   1.0000   1.0000   1.0000   1.0000   1.0000   1.0000   1.0000
     1.0000   1.0000   1.0000   1.0000   1.0000   1.0000   1.0000   1.0000
     1.0000   1.0000   1.0000   1.0000   1.0000   1.0000   1.0000   1.0000
     1.0000   1.0000   0.0000   0.0000   0.0000   0.0000   0.0000

          k = 0.1667 0.3849 0.2325 (  1482 PWs)   bands (ev):

  -110.3206-110.3205 -64.5419 -64.5407 -64.5366 -64.5361 -64.5346 -64.5343
    -5.7246  -5.4906   5.6193   5.6824   6.6330   6.6773   7.0058   7.1010
     8.4908   8.6491   8.7698   8.8556   9.9371  10.3652  11.0396  11.1476
    11.9019  12.2940  19.6632  20.6408  23.6967  23.8691  25.7368

     occupation numbers 
     1.0000   1.0000   1.0000   1.0000   1.0000   1.0000   1.0000   1.0000
     1.0000   1.0000   1.0000   1.0000   1.0000   1.0000   1.0000   1.0000
     1.0000   1.0000   1.0000   1.0000   1.0000   1.0000   1.0000   1.0000
     1.0000   1.0000   0.0000   0.0000   0.0000   0.0000   0.0000

          k = 0.1667 0.3849-0.3100 (  1486 PWs)   bands (ev):

  -110.3206-110.3206 -64.5415 -64.5415 -64.5361 -64.5361 -64.5346 -64.5346
    -5.6058  -5.6058   5.5960   5.5960   6.6558   6.6558   7.0295   7.0295
     8.6268   8.6268   8.7646   8.7646  10.1764  10.1764  11.3371  11.3371
    11.9329  11.9329  20.0909  20.0909  23.8392  23.8392  25.7480

     occupation numbers 
     1.0000   1.0000   1.0000   1.0000   1.0000   1.0000   1.0000   1.0000
     1.0000   1.0000   1.0000   1.0000   1.0000   1.0000   1.0000   1.0000
     1.0000   1.0000   1.0000   1.0000   1.0000   1.0000   1.0000   1.0000
     1.0000   1.0000   0.0000   0.0000   0.0000   0.0000   0.0000

          k = 0.1667 0.4811 0.0000 (  1487 PWs)   bands (ev):

  -110.3206-110.3203 -64.5409 -64.5399 -64.5393 -64.5369 -64.5361 -64.5344
    -5.6933  -5.3009   5.9025   6.1555   6.6329   6.8619   7.3396   7.4672
     8.2768   8.4181   8.8654   8.9097   9.2593   9.7759   9.9693  10.5199
[...]
    -5.6988  -5.2984   6.0641   6.1109   6.7272   6.8033   7.3330   7.4389
     8.1670   8.3848   8.8668   8.8930   9.3591   9.6158  10.1900  10.3937
    11.9526  12.0330  20.5575  21.5326  23.0756  23.8482  26.1934

     occupation numbers 
     1.0000   1.0000   1.0000   1.0000   1.0000   1.0000   1.0000   1.0000
     1.0000   1.0000   1.0000   1.0000   1.0000   1.0000   1.0000   1.0000
     1.0000   1.0000   1.0000   1.0000   1.0000   1.0000   1.0000   1.0000
     1.0000   1.0000   0.0000   0.0000   0.0000   0.0000   0.0000

          k = 0.2500 0.4330 0.0775 (  1492 PWs)   bands (ev):

  -110.3206-110.3204 -64.5411 -64.5400 -64.5384 -64.5374 -64.5357 -64.5350
    -5.6809  -5.3106   6.0089   6.0731   6.7141   6.7176   7.2748   7.4006
     8.2175   8.5149   8.8588   8.9655   9.3055   9.7082  10.3366  10.3547
    11.8789  12.0890  20.5374  21.4838  23.1073  23.8807  25.8302

     occupation numbers 
     1.0000   1.0000   1.0000   1.0000   1.0000   1.0000   1.0000   1.0000
     1.0000   1.0000   1.0000   1.0000   1.0000   1.0000   1.0000   1.0000
     1.0000   1.0000   1.0000   1.0000   1.0000   1.0000   1.0000   1.0000
     1.0000   1.0000   0.0000   0.0000   0.0000   0.0000   0.0000

          k = 0.2500 0.4330 0.1550 (  1480 PWs)   bands (ev):

  -110.3206-110.3204 -64.5418 -64.5406 -64.5375 -64.5373 -64.5352 -64.5350
    -5.6310  -5.3466   5.8791   5.9459   6.5972   6.6839   7.2096   7.3130
     8.3391   8.6260   8.8551   9.1410   9.2665   9.9015  10.2983  10.7004
    11.6938  12.1797  20.5173  21.3320  23.2010  23.9299  25.2597

     occupation numbers 
     1.0000   1.0000   1.0000   1.0000   1.0000   1.0000   1.0000   1.0000
     1.0000   1.0000   1.0000   1.0000   1.0000   1.0000   1.0000   1.0000
     1.0000   1.0000   1.0000   1.0000   1.0000   1.0000   1.0000   1.0000
     1.0000   1.0000   0.0000   0.0000   0.0000   0.0000   0.0000

          k = 0.2500 0.4330 0.2325 (  1482 PWs)   bands (ev):

  -110.3205-110.3204 -64.5421 -64.5414 -64.5373 -64.5367 -64.5352 -64.5347
    -5.5591  -5.4047   5.7564   5.7898   6.5704   6.6446   7.1773   7.2279
     8.4758   8.6326   8.8784   9.0444   9.5273   9.9225  10.4544  10.9795
    11.6144  12.1513  20.5863  21.0814  23.3589  23.8422  24.9429

     occupation numbers 
     1.0000   1.0000   1.0000   1.0000   1.0000   1.0000   1.0000   1.0000
     1.0000   1.0000   1.0000   1.0000   1.0000   1.0000   1.0000   1.0000
     1.0000   1.0000   1.0000   1.0000   1.0000   1.0000   1.0000   1.0000
     1.0000   1.0000   0.0000   0.0000   0.0000   0.0000   0.0000

          k = 0.2500 0.4330-0.3100 (  1480 PWs)   bands (ev):

  -110.3205-110.3205 -64.5419 -64.5419 -64.5369 -64.5369 -64.5348 -64.5348
    -5.4790  -5.4790   5.7154   5.7154   6.6006   6.6006   7.1805   7.1805
     8.5811   8.5811   8.9418   8.9418   9.7595   9.7595  10.7759  10.7759
    11.9146  11.9146  20.7945  20.7945  23.5894  23.5894  25.0389

     occupation numbers 
     1.0000   1.0000   1.0000   1.0000   1.0000   1.0000   1.0000   1.0000
     1.0000   1.0000   1.0000   1.0000   1.0000   1.0000   1.0000   1.0000
     1.0000   1.0000   1.0000   1.0000   1.0000   1.0000   1.0000   1.0000
     1.0000   1.0000   0.0000   0.0000   0.0000   0.0000   0.0000

          k = 0.2500 0.5292 0.0000 (  1473 PWs)   bands (ev):

  -110.3205-110.3204 -64.5402 -64.5394 -64.5388 -64.5380 -64.5369 -64.5356
    -5.5291  -5.3283   6.0996   6.3814   6.6595   6.8046   7.4539   7.5614
     8.2766   8.3401   8.6418   8.7145   9.1799   9.5993   9.9414  10.6854
    11.4557  11.7418  21.3402  21.7149  22.6079  23.6271  25.9096

     occupation numbers 
     1.0000   1.0000   1.0000   1.0000   1.0000   1.0000   1.0000   1.0000
     1.0000   1.0000   1.0000   1.0000   1.0000   1.0000   1.0000   1.0000
     1.0000   1.0000   1.0000   1.0000   1.0000   1.0000   1.0000   1.0000
     1.0000   1.0000   0.0000   0.0000   0.0000   0.0000   0.0000

          k = 0.2500 0.5292 0.0775 (  1480 PWs)   bands (ev):

  -110.3205-110.3204 -64.5408 -64.5400 -64.5387 -64.5376 -64.5365 -64.5357
    -5.5182  -5.3324   6.0835   6.2965   6.5880   6.7721   7.4172   7.4977
     8.2883   8.4765   8.6963   8.7531   9.2725   9.5656   9.9107  10.8041
    11.4364  11.7679  21.3075  21.7298  22.6357  23.6490  25.5517

     occupation numbers 
     1.0000   1.0000   1.0000   1.0000   1.0000   1.0000   1.0000   1.0000
     1.0000   1.0000   1.0000   1.0000   1.0000   1.0000   1.0000   1.0000
     1.0000   1.0000   1.0000   1.0000   1.0000   1.0000   1.0000   1.0000
     1.0000   1.0000   0.0000   0.0000   0.0000   0.0000   0.0000

          k = 0.2500 0.5292 0.1550 (  1483 PWs)   bands (ev):

  -110.3205-110.3204 -64.5416 -64.5408 -64.5385 -64.5368 -64.5361 -64.5354
    -5.4883  -5.3456   6.0092   6.1052   6.4738   6.7031   7.3624   7.4060
     8.3544   8.5345   8.8542   8.9401   9.3832   9.5826   9.8683  11.0117
    11.3690  11.8961  21.2492  21.7091  22.7419  23.6870  24.8804

     occupation numbers 
     1.0000   1.0000   1.0000   1.0000   1.0000   1.0000   1.0000   1.0000
     1.0000   1.0000   1.0000   1.0000   1.0000   1.0000   1.0000   1.0000
     1.0000   1.0000   1.0000   1.0000   1.0000   1.0000   1.0000   1.0000
     1.0000   1.0000   0.0000   0.0000   0.0000   0.0000   0.0000

          k = 0.2500 0.5292 0.2325 (  1482 PWs)   bands (ev):

  -110.3205-110.3204 -64.5421 -64.5417 -64.5380 -64.5369 -64.5355 -64.5350
    -5.4473  -5.3698   5.8945   5.9257   6.4608   6.6124   7.3295   7.3470
     8.4204   8.5152   8.9989   9.1938   9.3008   9.5825  10.0701  10.8142
    11.6339  11.9956  21.2506  21.5722  22.9510  23.5780  24.4945

     occupation numbers 
     1.0000   1.0000   1.0000   1.0000   1.0000   1.0000   1.0000   1.0000
     1.0000   1.0000   1.0000   1.0000   1.0000   1.0000   1.0000   1.0000
     1.0000   1.0000   1.0000   1.0000   1.0000   1.0000   1.0000   1.0000
     1.0000   1.0000   0.0000   0.0000   0.0000   0.0000   0.0000

          k = 0.2500 0.5292-0.3100 (  1476 PWs)   bands (ev):

  -110.3204-110.3204 -64.5421 -64.5421 -64.5375 -64.5375 -64.5350 -64.5350
    -5.4051  -5.4051   5.8482   5.8482   6.5219   6.5219   7.3233   7.3233
     8.4744   8.4744   9.1458   9.1458   9.4294   9.4294  10.4438  10.4438
    11.9130  11.9130  21.3745  21.3745  23.2515  23.2516  24.6219

     occupation numbers 
     1.0000   1.0000   1.0000   1.0000   1.0000   1.0000   1.0000   1.0000
     1.0000   1.0000   1.0000   1.0000   1.0000   1.0000   1.0000   1.0000
     1.0000   1.0000   1.0000   1.0000   1.0000   1.0000   1.0000   1.0000
     1.0000   1.0000   0.0000   0.0000   0.0000   0.0000   0.0000

          k = 0.3333 0.5774 0.0000 (  1464 PWs)   bands (ev):

  -110.3204-110.3204 -64.5395 -64.5391 -64.5391 -64.5378 -64.5378 -64.5362
    -5.4038  -5.4038   6.1489   6.6586   6.6586   6.7451   7.5428   7.5428
     8.2199   8.3961   8.3961   8.4871   9.1563   9.7939   9.7939  11.1816
    11.1816  11.2965  21.2602  22.4634  22.9457  22.9457  25.9178

     occupation numbers 
     1.0000   1.0000   1.0000   1.0000   1.0000   1.0000   1.0000   1.0000
     1.0000   1.0000   1.0000   1.0000   1.0000   1.0000   1.0000   1.0000
     1.0000   1.0000   1.0000   1.0000   1.0000   1.0000   1.0000   1.0000
     1.0000   1.0000   0.0000   0.0000   0.0000   0.0000   0.0000

          k = 0.3333 0.5774 0.0775 (  1464 PWs)   bands (ev):

  -110.3204-110.3204 -64.5398 -64.5398 -64.5393 -64.5370 -64.5370 -64.5363
    -5.4001  -5.4001   6.1636   6.5439   6.5439   6.7078   7.5033   7.5033
     8.2342   8.4783   8.5430   8.5430   9.2369   9.7521   9.7521  11.2053
    11.2896  11.2896  21.3425  22.4423  22.9229  22.9229  25.6190

     occupation numbers 
     1.0000   1.0000   1.0000   1.0000   1.0000   1.0000   1.0000   1.0000
     1.0000   1.0000   1.0000   1.0000   1.0000   1.0000   1.0000   1.0000
     1.0000   1.0000   1.0000   1.0000   1.0000   1.0000   1.0000   1.0000
     1.0000   1.0000   0.0000   0.0000   0.0000   0.0000   0.0000

          k = 0.3333 0.5774 0.1550 (  1473 PWs)   bands (ev):

  -110.3204-110.3204 -64.5409 -64.5409 -64.5389 -64.5368 -64.5360 -64.5360
    -5.3913  -5.3913   6.2076   6.3021   6.3021   6.6129   7.4535   7.4535
     8.2703   8.4532   8.8272   8.8272   9.4631   9.6479   9.6479  10.9538
    11.5478  11.5478  21.5553  22.3750  22.8532  22.8532  25.0322

     occupation numbers 
     1.0000   1.0000   1.0000   1.0000   1.0000   1.0000   1.0000   1.0000
     1.0000   1.0000   1.0000   1.0000   1.0000   1.0000   1.0000   1.0000
     1.0000   1.0000   1.0000   1.0000   1.0000   1.0000   1.0000   1.0000
     1.0000   1.0000   0.0000   0.0000   0.0000   0.0000   0.0000

          k = 0.3333 0.5774 0.2325 (  1473 PWs)   bands (ev):

  -110.3204-110.3204 -64.5416 -64.5416 -64.5384 -64.5373 -64.5353 -64.5353
    -5.3825  -5.3825   6.0962   6.0962   6.2801   6.4940   7.4262   7.4262
     8.3174   8.4148   9.0954   9.0954   9.5085   9.5085   9.7965  10.5950
    11.8069  11.8069  21.8206  22.2523  22.7540  22.7541  24.5692

     occupation numbers 
     1.0000   1.0000   1.0000   1.0000   1.0000   1.0000   1.0000   1.0000
     1.0000   1.0000   1.0000   1.0000   1.0000   1.0000   1.0000   1.0000
     1.0000   1.0000   1.0000   1.0000   1.0000   1.0000   1.0000   1.0000
     1.0000   1.0000   0.0000   0.0000   0.0000   0.0000   0.0000

          k = 0.3333 0.5774-0.3100 (  1458 PWs)   bands (ev):

  -110.3204-110.3204 -64.5418 -64.5418 -64.5378 -64.5378 -64.5349 -64.5349
    -5.3788  -5.3788   6.0187   6.0187   6.3780   6.3780   7.4177   7.4177
     8.3676   8.3676   9.2715   9.2715   9.3769   9.3769  10.1905  10.1905
    11.9153  11.9153  22.0656  22.0656  22.7011  22.7011  24.4061

     occupation numbers 
     1.0000   1.0000   1.0000   1.0000   1.0000   1.0000   1.0000   1.0000
     1.0000   1.0000   1.0000   1.0000   1.0000   1.0000   1.0000   1.0000
     1.0000   1.0000   1.0000   1.0000   1.0000   1.0000   1.0000   1.0000
     1.0000   1.0000   0.0000   0.0000   0.0000   0.0000   0.0000

     the Fermi energy is    14.4627 ev

!    total energy              =   -1006.41140755 Ry
     estimated scf accuracy    <          3.7E-09 Ry
     smearing contrib. (-TS)   =       0.00000001 Ry
     internal energy E=F+TS    =   -1006.41140756 Ry

     The total energy is F=E-TS. E is the sum of the following terms:
     one-electron contribution =    -729.73504778 Ry
     hartree contribution      =     394.82518319 Ry
     xc contribution           =    -100.13592245 Ry
     ewald contribution        =    -552.35925054 Ry
     one-center paw contrib.   =     -19.00636998 Ry
      -> PAW hartree energy AE =      56.73101642 Ry
      -> PAW hartree energy PS =     -56.45298490 Ry
      -> PAW xc energy AE      =     -34.03633427 Ry
      -> PAW xc energy PS      =      14.75193277 Ry
      -> total E_H with PAW    =     395.10321471 Ry
      -> total E_XC with PAW   =    -119.42032395 Ry

     convergence has been achieved in   9 iterations

     Forces acting on atoms (cartesian axes, Ry/au):

     atom    1 type  2   force =    -0.00000000   -0.00000000    0.00077570
     atom    2 type  2   force =     0.00000000    0.00000000    0.00077570
     atom    3 type  1   force =    -0.00000000   -0.00000000   -0.00077570
     atom    4 type  1   force =    -0.00000000   -0.00000000   -0.00077570
     The non-local contrib.  to forces
     atom    1 type  2   force =    -0.00000000    0.00000000   -0.01795387
     atom    2 type  2   force =     0.00000000   -0.00000000   -0.01795387
     atom    3 type  1   force =     0.00000000   -0.00000000   -0.00049993
     atom    4 type  1   force =     0.00000000   -0.00000000   -0.00049993
     The ionic contribution  to forces
     atom    1 type  2   force =    -0.00000073    0.00000042    0.09899360
     atom    2 type  2   force =     0.00000073   -0.00000042    0.09899360
     atom    3 type  1   force =    -0.00000063    0.00000036   -0.09899360
     atom    4 type  1   force =     0.00000063   -0.00000036   -0.09899360
     The local contribution  to forces
     atom    1 type  2   force =    -0.00000880    0.00000508   -0.08027736
     atom    2 type  2   force =     0.00002639   -0.00001524   -0.08027797
     atom    3 type  1   force =    -0.00000050    0.00000029    0.09872317
     atom    4 type  1   force =     0.00000150   -0.00000086    0.09872424
     The core correction contribution to forces
     atom    1 type  2   force =     0.00000000    0.00000000    0.00000000
     atom    2 type  2   force =     0.00000000    0.00000000    0.00000000
     atom    3 type  1   force =    -0.00000000    0.00000000   -0.00000686
     atom    4 type  1   force =     0.00000000   -0.00000000   -0.00000686
     The Hubbard contrib.    to forces
     atom    1 type  2   force =     0.00000000    0.00000000    0.00000000
     atom    2 type  2   force =     0.00000000    0.00000000    0.00000000
     atom    3 type  1   force =     0.00000000    0.00000000    0.00000000
     atom    4 type  1   force =     0.00000000    0.00000000    0.00000000
     The SCF correction term to forces
     atom    1 type  2   force =     0.00000000   -0.00000000    0.00001238
     atom    2 type  2   force =    -0.00000000    0.00000000    0.00001238
     atom    3 type  1   force =     0.00000000   -0.00000000   -0.00000026
     atom    4 type  1   force =    -0.00000000    0.00000000   -0.00000026

     Total force =     0.001551     Total SCF correction =     0.000018


     Computing stress (Cartesian axis) and pressure

          total   stress  (Ry/bohr**3)                   (kbar)     P=      714.46
   0.00486223   0.00000000   0.00000000          715.26        0.00        0.00
   0.00000000   0.00486223   0.00000000            0.00      715.26        0.00
   0.00000000   0.00000000   0.00484601            0.00        0.00      712.87

     kinetic stress (kbar)  45590.94      0.00      0.00
                                0.00  45590.94     -0.00
                                0.00     -0.00  45638.09

     local   stress (kbar)   7634.88     -0.00      0.00
                               -0.00   7634.88     -0.00
                                0.00     -0.00   1886.45

     nonloc. stress (kbar)   -721.41      0.00     -0.00
                                0.00   -721.41      0.00
                               -0.00      0.00   -743.38

     hartree stress (kbar)  76836.98     -0.00     -0.00
                               -0.00  76836.98     -0.00
                               -0.00     -0.00  79521.58

     exc-cor stress (kbar) -18363.55      0.00     -0.00
                                0.00 -18363.55      0.00
                               -0.00      0.00 -18363.62

     corecor stress (kbar)   -503.84     -0.00      0.00
                               -0.00   -503.84     -0.00
                                0.00     -0.00   -503.86

     ewald   stress (kbar)-109758.75      0.00      0.00
                                0.00-109758.75      0.00
                                0.00      0.00-106722.37

     hubbard stress (kbar)      0.00      0.00      0.00
                                0.00      0.00      0.00
                                0.00      0.00      0.00

     DFT-D   stress (kbar)      0.00      0.00      0.00
                                0.00      0.00      0.00
                                0.00      0.00      0.00

     XDM     stress (kbar)      0.00      0.00      0.00
                                0.00      0.00      0.00
                                0.00      0.00      0.00

     dft-nl  stress (kbar)      0.00      0.00      0.00
                                0.00      0.00      0.00
                                0.00      0.00      0.00

     TS-vdW  stress (kbar)      0.00      0.00      0.00
                                0.00      0.00      0.00
                                0.00      0.00      0.00

     MDB     stress (kbar)      0.00      0.00      0.00
                                0.00      0.00      0.00
                                0.00      0.00      0.00

     3D-RISM stress (kbar)      0.00      0.00      0.00
                                0.00      0.00      0.00
                                0.00      0.00      0.00


     Writing all to output data dir ./temp_hexag/aiida.save/ :
     XML data file, charge density, pseudopotentials, collected wavefunctions

     init_run     :    165.15s CPU      7.40s WALL (       1 calls)
     electrons    :   3901.73s CPU    177.29s WALL (       1 calls)
     forces       :     66.72s CPU      2.89s WALL (       1 calls)
     stress       :     72.99s CPU      3.53s WALL (       1 calls)

     Called by init_run:
     wfcinit      :    161.43s CPU      7.00s WALL (       1 calls)
     wfcinit:atom :      1.38s CPU      0.08s WALL (      95 calls)
     wfcinit:wfcr :    156.24s CPU      6.69s WALL (      95 calls)
     potinit      :      1.01s CPU      0.06s WALL (       1 calls)
     hinit0       :      1.40s CPU      0.23s WALL (       1 calls)

     Called by electrons:
     c_bands      :   3332.06s CPU    152.30s WALL (       9 calls)
     sum_band     :    550.47s CPU     23.68s WALL (       9 calls)
     v_of_rho     :      2.81s CPU      0.14s WALL (      10 calls)
     v_h          :      0.53s CPU      0.02s WALL (      10 calls)
     v_xc         :      3.41s CPU      0.18s WALL (      12 calls)
     newd         :      9.40s CPU      0.81s WALL (      10 calls)
     PAW_pot      :      6.96s CPU      0.30s WALL (      10 calls)
     mix_rho      :      0.94s CPU      0.04s WALL (       9 calls)

     Called by c_bands:
     init_us_2    :     23.57s CPU      1.32s WALL (    1995 calls)
     cegterg      :   3272.98s CPU    149.14s WALL (     855 calls)

     Called by sum_band:
     sum_band:wei :      0.20s CPU      0.02s WALL (       9 calls)
     sum_band:loo :    546.14s CPU     22.82s WALL (       9 calls)
     sum_band:buf :      2.27s CPU      0.07s WALL (     855 calls)
     sum_band:ini :      8.53s CPU      0.41s WALL (     855 calls)
     sum_band:cal :     72.31s CPU      2.87s WALL (     855 calls)
     sum_band:bec :     18.25s CPU      0.82s WALL (     855 calls)
     addusdens    :      3.83s CPU      0.76s WALL (       9 calls)
                                        0.00s GPU  (       9 calls)
     addusd:skk   :      0.21s CPU      0.00s WALL (      18 calls)
                                        0.00s GPU  (      18 calls)

     Called by *egterg:
     cdiaghg      :     62.36s CPU      2.50s WALL (    2945 calls)
     cegterg:over :    207.56s CPU      8.83s WALL (    2090 calls)
     cegterg:upda :     83.46s CPU      6.14s WALL (    2090 calls)
     cegterg:last :     99.33s CPU      8.80s WALL (    1620 calls)
     h_psi        :   2650.84s CPU    113.62s WALL (    3040 calls)
     s_psi        :    161.15s CPU      8.35s WALL (    3040 calls)
     g_psi        :     19.55s CPU      1.08s WALL (    2090 calls)

     Called by h_psi:
     h_psi:calbec :    178.28s CPU      7.59s WALL (    3040 calls)
     vloc_psi     :   2209.44s CPU     96.51s WALL (    3040 calls)
     add_vuspsi   :    238.50s CPU      8.14s WALL (    3040 calls)

     General routines
     calbec       :    290.35s CPU     12.07s WALL (    4370 calls)
     fft          :      2.13s CPU      0.12s WALL (     153 calls)
     ffts         :      0.47s CPU      0.01s WALL (      19 calls)
     fftw         :    961.97s CPU     42.94s WALL (  159771 calls)
     interpolate  :      0.47s CPU      0.01s WALL (      10 calls)

     Parallel routines

     PAW routines
     PAW_pot      :      6.96s CPU      0.30s WALL (      10 calls)
     PAW_symme    :      0.00s CPU      0.00s WALL (      19 calls)

     PWSCF        :      1h10m CPU   3m12.67s WALL


   This run was terminated on:   0:13:38  12Jun2024            

=------------------------------------------------------------------------------=
   JOB DONE.
=------------------------------------------------------------------------------=
