
     Program PWSCF v.7.3.1 starts on 12Jun2024 at 14:26:20 

     This program is part of the open-source Quantum ESPRESSO suite
     for quantum simulation of materials; please cite
         "P. Giannozzi et al., J. Phys.:Condens. Matter 21 395502 (2009);
         "P. Giannozzi et al., J. Phys.:Condens. Matter 29 465901 (2017);
         "P. Giannozzi et al., J. Chem. Phys. 152 154105 (2020);
          URL http://www.quantum-espresso.org", 
     in publications or presentations arising from this work. More details at
     http://www.quantum-espresso.org/quote

     Parallel version (MPI & OpenMP), running on      24 processor cores
     Number of MPI processes:                 1
     Threads/MPI process:                    24

     MPI processes distributed on     1 nodes
     5087 MiB available memory on the printing compute node when the environment starts

     Waiting for input...
     Reading input from standard input

     Current dimensions of program PWSCF are:
     Max number of different atomic species (ntypx) = 10
     Max number of k-points (npk) =  40000
     Max angular momentum in pseudopotentials (lmaxx) =  4
     file O.pbe-n-kjpaw_psl.0.1.UPF: wavefunction(s)  2P renormalized
     Message from routine setup:
     using ibrav=0 with symmetry is DISCOURAGED, use correct ibrav instead

     Subspace diagonalization in iterative solution of the eigenvalue problem:
     a serial algorithm will be used


     G-vector sticks info
     --------------------
     sticks:   dense  smooth     PW     G-vecs:    dense   smooth      PW
     Sum        2065    1039    301               122225    43245    6741

     Using Slab Decomposition



     bravais-lattice index     =            0
     lattice parameter (alat)  =       6.1177  a.u.
     unit-cell volume          =     319.8518 (a.u.)^3
     number of atoms/cell      =            4
     number of atomic types    =            2
     number of electrons       =        52.00
     number of Kohn-Sham states=           31
     kinetic-energy cutoff     =     100.0000  Ry
     charge density cutoff     =     800.0000  Ry
     scf convergence threshold =      2.0E-08
     mixing beta               =       0.4000
     number of iterations used =            8  plain     mixing
     Exchange-correlation= SLA  PW   PBE  PBE
                           (   1   4   3   4   0   0   0)

     celldm(1)=   6.117707  celldm(2)=   0.000000  celldm(3)=   0.000000
     celldm(4)=   0.000000  celldm(5)=   0.000000  celldm(6)=   0.000000

     crystal axes: (cart. coord. in units of alat)
               a(1) = (   1.000000   0.000000   0.000000 )  
               a(2) = (  -0.500000   0.866025   0.000000 )  
               a(3) = (   0.000000   0.000000   1.613066 )  

     reciprocal axes: (cart. coord. in units 2 pi/alat)
               b(1) = (  1.000000  0.577350 -0.000000 )  
               b(2) = (  0.000000  1.154701  0.000000 )  
               b(3) = (  0.000000 -0.000000  0.619937 )  


     PseudoPot. # 1 for O  read from file:
     ../SSSP_1.3.0_PBE_efficiency/O.pbe-n-kjpaw_psl.0.1.UPF
     MD5 check sum: 0234752ac141de4415c5fc33072bef88
     Pseudo is Projector augmented-wave + core cor, Zval =  6.0
     Generated using "atomic" code by A. Dal Corso  v.5.0.99 svn rev. 10869
     Shape of augmentation charge: BESSEL
     Using radial grid of 1095 points,  4 beta functions with: 
                l(1) =   0
                l(2) =   0
                l(3) =   1
                l(4) =   1
     Q(r) pseudized with 0 coefficients 


     PseudoPot. # 2 for Zn read from file:
     ../SSSP_1.3.0_PBE_efficiency/Zn_pbe_v1.uspp.F.UPF
     MD5 check sum: df62231357ef9e81f77b2b3087fa5675
     Pseudo is Ultrasoft, Zval = 20.0
     Generated by new atomic code, or converted to UPF format
     Using radial grid of  943 points,  6 beta functions with: 
                l(1) =   0
                l(2) =   0
                l(3) =   1
                l(4) =   1
                l(5) =   2
                l(6) =   2
     Q(r) pseudized with  8 coefficients,  rinner =    1.100   1.100   1.100
                                                       1.100   1.100

     atomic species   valence    mass     pseudopotential
     O                 6.00    15.99940     O ( 1.00)
     Zn               20.00    65.38000     Zn( 1.00)

     12 Sym. Ops. (no inversion) found ( 6 have fractional translation)


                                    s                        frac. trans.

      isym =  1     identity                                     

 cryst.   s( 1) = (     1          0          0      )
                  (     0          1          0      )
                  (     0          0          1      )

 cart.    s( 1) = (  1.0000000  0.0000000  0.0000000 )
                  (  0.0000000  1.0000000  0.0000000 )
                  (  0.0000000  0.0000000  1.0000000 )


      isym =  2     180 deg rotation - cart. axis [0,0,1]        

 cryst.   s( 2) = (    -1          0          0      )    f =(  0.0000000 )
                  (     0         -1          0      )       ( -0.0000000 )
                  (     0          0          1      )       (  0.5000000 )

 cart.    s( 2) = ( -1.0000000  0.0000000  0.0000000 )    f =(  0.0000000 )
                  (  0.0000000 -1.0000000  0.0000000 )       ( -0.0000000 )
                  (  0.0000000  0.0000000  1.0000000 )       (  0.8065331 )


      isym =  3      60 deg rotation - cryst. axis [0,0,1]       

 cryst.   s( 3) = (     1          1          0      )    f =( -0.0000000 )
                  (    -1          0          0      )       (  0.0000000 )
                  (     0          0          1      )       (  0.5000000 )

 cart.    s( 3) = (  0.5000000 -0.8660254  0.0000000 )    f =( -0.0000000 )
                  (  0.8660254  0.5000000  0.0000000 )       (  0.0000000 )
                  (  0.0000000  0.0000000  1.0000000 )       (  0.8065331 )


      isym =  4      60 deg rotation - cryst. axis [0,0,-1]      

 cryst.   s( 4) = (     0         -1          0      )    f =(  0.0000000 )
                  (     1          1          0      )       (  0.0000000 )
                  (     0          0          1      )       (  0.5000000 )

 cart.    s( 4) = (  0.5000000  0.8660254  0.0000000 )    f =( -0.0000000 )
                  ( -0.8660254  0.5000000  0.0000000 )       (  0.0000000 )
                  (  0.0000000  0.0000000  1.0000000 )       (  0.8065331 )


      isym =  5     120 deg rotation - cryst. axis [0,0,1]       

 cryst.   s( 5) = (     0          1          0      )
                  (    -1         -1          0      )
                  (     0          0          1      )

 cart.    s( 5) = ( -0.5000000 -0.8660254  0.0000000 )
                  (  0.8660254 -0.5000000  0.0000000 )
                  (  0.0000000  0.0000000  1.0000000 )


      isym =  6     120 deg rotation - cryst. axis [0,0,-1]      

 cryst.   s( 6) = (    -1         -1          0      )
                  (     1          0          0      )
                  (     0          0          1      )

 cart.    s( 6) = ( -0.5000000  0.8660254  0.0000000 )
                  ( -0.8660254 -0.5000000  0.0000000 )
                  (  0.0000000  0.0000000  1.0000000 )


      isym =  7     inv. 180 deg rotation - cart. axis [0,1,0]   

 cryst.   s( 7) = (     1          0          0      )    f =( -0.0000000 )
                  (    -1         -1          0      )       ( -0.0000000 )
                  (     0          0          1      )       (  0.5000000 )

 cart.    s( 7) = (  1.0000000  0.0000000  0.0000000 )    f =( -0.0000000 )
                  (  0.0000000 -1.0000000  0.0000000 )       ( -0.0000000 )
                  (  0.0000000  0.0000000  1.0000000 )       (  0.8065331 )


      isym =  8     inv. 180 deg rotation - cart. axis [1,0,0]   

 cryst.   s( 8) = (    -1          0          0      )
                  (     1          1          0      )
                  (     0          0          1      )

 cart.    s( 8) = ( -1.0000000  0.0000000  0.0000000 )
                  (  0.0000000  1.0000000  0.0000000 )
                  (  0.0000000  0.0000000  1.0000000 )


      isym =  9     inv. 180 deg rotation - cryst. axis [1,-1,0] 

 cryst.   s( 9) = (     0          1          0      )    f =(  0.0000000 )
                  (     1          0          0      )       (  0.0000000 )
                  (     0          0          1      )       (  0.5000000 )

 cart.    s( 9) = ( -0.5000000  0.8660254  0.0000000 )    f =(  0.0000000 )
                  (  0.8660254  0.5000000  0.0000000 )       (  0.0000000 )
                  (  0.0000000  0.0000000  1.0000000 )       (  0.8065331 )


      isym = 10     inv. 180 deg rotation - cryst. axis [2,1,0]  

 cryst.   s(10) = (    -1         -1          0      )    f =(  0.0000000 )
                  (     0          1          0      )       (  0.0000000 )
                  (     0          0          1      )       (  0.5000000 )

 cart.    s(10) = ( -0.5000000 -0.8660254  0.0000000 )    f =( -0.0000000 )
                  ( -0.8660254  0.5000000  0.0000000 )       (  0.0000000 )
                  (  0.0000000  0.0000000  1.0000000 )       (  0.8065331 )


      isym = 11     inv. 180 deg rotation - cryst. axis [0,1,0]  

 cryst.   s(11) = (     1          1          0      )
                  (     0         -1          0      )
                  (     0          0          1      )

 cart.    s(11) = (  0.5000000  0.8660254  0.0000000 )
                  (  0.8660254 -0.5000000  0.0000000 )
                  (  0.0000000  0.0000000  1.0000000 )


      isym = 12     inv. 180 deg rotation - cryst. axis [1,1,0]  

 cryst.   s(12) = (     0         -1          0      )
                  (    -1          0          0      )
                  (     0          0          1      )

 cart.    s(12) = (  0.5000000 -0.8660254  0.0000000 )
                  ( -0.8660254 -0.5000000  0.0000000 )
                  (  0.0000000  0.0000000  1.0000000 )


   Cartesian axes

     site n.     atom                  positions (alat units)
         1        Zn     tau(   1) = (   0.5000000   0.2886751   0.8074875  )
         2        Zn     tau(   2) = (  -0.0000000   0.5773503   0.0009545  )
         3        O      tau(   3) = (   0.5000000   0.2886751   1.4190438  )
         4        O      tau(   4) = (  -0.0000000   0.5773503   0.6125107  )

   Crystallographic axes

     site n.     atom                  positions (cryst. coord.)
         1        Zn     tau(   1) = (  0.6666667  0.3333333  0.5005917  )
         2        Zn     tau(   2) = (  0.3333333  0.6666667  0.0005917  )
         3        O      tau(   3) = (  0.6666667  0.3333333  0.8797183  )
         4        O      tau(   4) = (  0.3333333  0.6666667  0.3797183  )

     number of k points=    95  Marzari-Vanderbilt smearing, width (Ry)=  0.0294
                       cart. coord. in units 2pi/alat
        k(    1) = (   0.0000000   0.0000000   0.0000000), wk =   0.0017361
        k(    2) = (   0.0000000   0.0000000   0.0774922), wk =   0.0034722
        k(    3) = (   0.0000000   0.0000000   0.1549843), wk =   0.0034722
        k(    4) = (   0.0000000   0.0000000   0.2324765), wk =   0.0034722
        k(    5) = (   0.0000000   0.0000000  -0.3099687), wk =   0.0017361
        k(    6) = (   0.0000000   0.0962250   0.0000000), wk =   0.0104167
        k(    7) = (   0.0000000   0.0962250   0.0774922), wk =   0.0208333
        k(    8) = (   0.0000000   0.0962250   0.1549843), wk =   0.0208333
        k(    9) = (   0.0000000   0.0962250   0.2324765), wk =   0.0208333
        k(   10) = (   0.0000000   0.0962250  -0.3099687), wk =   0.0104167
        k(   11) = (   0.0000000   0.1924501   0.0000000), wk =   0.0104167
        k(   12) = (   0.0000000   0.1924501   0.0774922), wk =   0.0208333
        k(   13) = (   0.0000000   0.1924501   0.1549843), wk =   0.0208333
        k(   14) = (   0.0000000   0.1924501   0.2324765), wk =   0.0208333
        k(   15) = (   0.0000000   0.1924501  -0.3099687), wk =   0.0104167
        k(   16) = (   0.0000000   0.2886751   0.0000000), wk =   0.0104167
        k(   17) = (   0.0000000   0.2886751   0.0774922), wk =   0.0208333
        k(   18) = (   0.0000000   0.2886751   0.1549843), wk =   0.0208333
        k(   19) = (   0.0000000   0.2886751   0.2324765), wk =   0.0208333
        k(   20) = (   0.0000000   0.2886751  -0.3099687), wk =   0.0104167
        k(   21) = (   0.0000000   0.3849002   0.0000000), wk =   0.0104167
        k(   22) = (   0.0000000   0.3849002   0.0774922), wk =   0.0208333
        k(   23) = (   0.0000000   0.3849002   0.1549843), wk =   0.0208333
        k(   24) = (   0.0000000   0.3849002   0.2324765), wk =   0.0208333
        k(   25) = (   0.0000000   0.3849002  -0.3099687), wk =   0.0104167
        k(   26) = (   0.0000000   0.4811252   0.0000000), wk =   0.0104167
        k(   27) = (   0.0000000   0.4811252   0.0774922), wk =   0.0208333
        k(   28) = (   0.0000000   0.4811252   0.1549843), wk =   0.0208333
        k(   29) = (   0.0000000   0.4811252   0.2324765), wk =   0.0208333
        k(   30) = (   0.0000000   0.4811252  -0.3099687), wk =   0.0104167
        k(   31) = (   0.0000000  -0.5773503   0.0000000), wk =   0.0052083
        k(   32) = (   0.0000000  -0.5773503   0.0774922), wk =   0.0104167
        k(   33) = (   0.0000000  -0.5773503   0.1549843), wk =   0.0104167
        k(   34) = (   0.0000000  -0.5773503   0.2324765), wk =   0.0104167
        k(   35) = (   0.0000000  -0.5773503  -0.3099687), wk =   0.0052083
        k(   36) = (   0.0833333   0.1443376   0.0000000), wk =   0.0104167
        k(   37) = (   0.0833333   0.1443376   0.0774922), wk =   0.0208333
        k(   38) = (   0.0833333   0.1443376   0.1549843), wk =   0.0208333
        k(   39) = (   0.0833333   0.1443376   0.2324765), wk =   0.0208333
        k(   40) = (   0.0833333   0.1443376  -0.3099687), wk =   0.0104167
        k(   41) = (   0.0833333   0.2405626   0.0000000), wk =   0.0208333
        k(   42) = (   0.0833333   0.2405626   0.0774922), wk =   0.0416667
        k(   43) = (   0.0833333   0.2405626   0.1549843), wk =   0.0416667
        k(   44) = (   0.0833333   0.2405626   0.2324765), wk =   0.0416667
        k(   45) = (   0.0833333   0.2405626  -0.3099687), wk =   0.0208333
        k(   46) = (   0.0833333   0.3367877   0.0000000), wk =   0.0208333
        k(   47) = (   0.0833333   0.3367877   0.0774922), wk =   0.0416667
        k(   48) = (   0.0833333   0.3367877   0.1549843), wk =   0.0416667
        k(   49) = (   0.0833333   0.3367877   0.2324765), wk =   0.0416667
        k(   50) = (   0.0833333   0.3367877  -0.3099687), wk =   0.0208333
        k(   51) = (   0.0833333   0.4330127   0.0000000), wk =   0.0208333
        k(   52) = (   0.0833333   0.4330127   0.0774922), wk =   0.0416667
        k(   53) = (   0.0833333   0.4330127   0.1549843), wk =   0.0416667
        k(   54) = (   0.0833333   0.4330127   0.2324765), wk =   0.0416667
        k(   55) = (   0.0833333   0.4330127  -0.3099687), wk =   0.0208333
        k(   56) = (   0.0833333   0.5292377   0.0000000), wk =   0.0208333
        k(   57) = (   0.0833333   0.5292377   0.0774922), wk =   0.0416667
        k(   58) = (   0.0833333   0.5292377   0.1549843), wk =   0.0416667
        k(   59) = (   0.0833333   0.5292377   0.2324765), wk =   0.0416667
        k(   60) = (   0.0833333   0.5292377  -0.3099687), wk =   0.0208333
        k(   61) = (   0.1666667   0.2886751   0.0000000), wk =   0.0104167
        k(   62) = (   0.1666667   0.2886751   0.0774922), wk =   0.0208333
        k(   63) = (   0.1666667   0.2886751   0.1549843), wk =   0.0208333
        k(   64) = (   0.1666667   0.2886751   0.2324765), wk =   0.0208333
        k(   65) = (   0.1666667   0.2886751  -0.3099687), wk =   0.0104167
        k(   66) = (   0.1666667   0.3849002   0.0000000), wk =   0.0208333
        k(   67) = (   0.1666667   0.3849002   0.0774922), wk =   0.0416667
        k(   68) = (   0.1666667   0.3849002   0.1549843), wk =   0.0416667
        k(   69) = (   0.1666667   0.3849002   0.2324765), wk =   0.0416667
        k(   70) = (   0.1666667   0.3849002  -0.3099687), wk =   0.0208333
        k(   71) = (   0.1666667   0.4811252   0.0000000), wk =   0.0208333
        k(   72) = (   0.1666667   0.4811252   0.0774922), wk =   0.0416667
        k(   73) = (   0.1666667   0.4811252   0.1549843), wk =   0.0416667
        k(   74) = (   0.1666667   0.4811252   0.2324765), wk =   0.0416667
        k(   75) = (   0.1666667   0.4811252  -0.3099687), wk =   0.0208333
        k(   76) = (   0.1666667   0.5773503   0.0000000), wk =   0.0104167
        k(   77) = (   0.1666667   0.5773503   0.0774922), wk =   0.0208333
        k(   78) = (   0.1666667   0.5773503   0.1549843), wk =   0.0208333
        k(   79) = (   0.1666667   0.5773503   0.2324765), wk =   0.0208333
        k(   80) = (   0.1666667   0.5773503  -0.3099687), wk =   0.0104167
        k(   81) = (   0.2500000   0.4330127   0.0000000), wk =   0.0104167
        k(   82) = (   0.2500000   0.4330127   0.0774922), wk =   0.0208333
        k(   83) = (   0.2500000   0.4330127   0.1549843), wk =   0.0208333
        k(   84) = (   0.2500000   0.4330127   0.2324765), wk =   0.0208333
        k(   85) = (   0.2500000   0.4330127  -0.3099687), wk =   0.0104167
        k(   86) = (   0.2500000   0.5292377   0.0000000), wk =   0.0208333
        k(   87) = (   0.2500000   0.5292377   0.0774922), wk =   0.0416667
        k(   88) = (   0.2500000   0.5292377   0.1549843), wk =   0.0416667
        k(   89) = (   0.2500000   0.5292377   0.2324765), wk =   0.0416667
        k(   90) = (   0.2500000   0.5292377  -0.3099687), wk =   0.0208333
        k(   91) = (   0.3333333   0.5773503   0.0000000), wk =   0.0034722
        k(   92) = (   0.3333333   0.5773503   0.0774922), wk =   0.0069444
        k(   93) = (   0.3333333   0.5773503   0.1549843), wk =   0.0069444
        k(   94) = (   0.3333333   0.5773503   0.2324765), wk =   0.0069444
        k(   95) = (   0.3333333   0.5773503  -0.3099687), wk =   0.0034722

                       cryst. coord.
        k(    1) = (   0.0000000   0.0000000   0.0000000), wk =   0.0017361
        k(    2) = (   0.0000000   0.0000000   0.1250000), wk =   0.0034722
        k(    3) = (   0.0000000   0.0000000   0.2500000), wk =   0.0034722
        k(    4) = (   0.0000000   0.0000000   0.3750000), wk =   0.0034722
        k(    5) = (   0.0000000   0.0000000  -0.5000000), wk =   0.0017361
        k(    6) = (   0.0000000   0.0833333   0.0000000), wk =   0.0104167
        k(    7) = (   0.0000000   0.0833333   0.1250000), wk =   0.0208333
        k(    8) = (   0.0000000   0.0833333   0.2500000), wk =   0.0208333
        k(    9) = (   0.0000000   0.0833333   0.3750000), wk =   0.0208333
        k(   10) = (   0.0000000   0.0833333  -0.5000000), wk =   0.0104167
        k(   11) = (   0.0000000   0.1666667   0.0000000), wk =   0.0104167
        k(   12) = (   0.0000000   0.1666667   0.1250000), wk =   0.0208333
        k(   13) = (   0.0000000   0.1666667   0.2500000), wk =   0.0208333
        k(   14) = (   0.0000000   0.1666667   0.3750000), wk =   0.0208333
        k(   15) = (   0.0000000   0.1666667  -0.5000000), wk =   0.0104167
        k(   16) = (   0.0000000   0.2500000   0.0000000), wk =   0.0104167
        k(   17) = (   0.0000000   0.2500000   0.1250000), wk =   0.0208333
        k(   18) = (   0.0000000   0.2500000   0.2500000), wk =   0.0208333
        k(   19) = (   0.0000000   0.2500000   0.3750000), wk =   0.0208333
        k(   20) = (   0.0000000   0.2500000  -0.5000000), wk =   0.0104167
        k(   21) = (   0.0000000   0.3333333   0.0000000), wk =   0.0104167
        k(   22) = (   0.0000000   0.3333333   0.1250000), wk =   0.0208333
        k(   23) = (   0.0000000   0.3333333   0.2500000), wk =   0.0208333
        k(   24) = (   0.0000000   0.3333333   0.3750000), wk =   0.0208333
        k(   25) = (   0.0000000   0.3333333  -0.5000000), wk =   0.0104167
        k(   26) = (   0.0000000   0.4166667   0.0000000), wk =   0.0104167
        k(   27) = (   0.0000000   0.4166667   0.1250000), wk =   0.0208333
        k(   28) = (   0.0000000   0.4166667   0.2500000), wk =   0.0208333
        k(   29) = (   0.0000000   0.4166667   0.3750000), wk =   0.0208333
        k(   30) = (   0.0000000   0.4166667  -0.5000000), wk =   0.0104167
        k(   31) = (   0.0000000  -0.5000000   0.0000000), wk =   0.0052083
        k(   32) = (   0.0000000  -0.5000000   0.1250000), wk =   0.0104167
        k(   33) = (   0.0000000  -0.5000000   0.2500000), wk =   0.0104167
        k(   34) = (   0.0000000  -0.5000000   0.3750000), wk =   0.0104167
        k(   35) = (   0.0000000  -0.5000000  -0.5000000), wk =   0.0052083
        k(   36) = (   0.0833333   0.0833333   0.0000000), wk =   0.0104167
        k(   37) = (   0.0833333   0.0833333   0.1250000), wk =   0.0208333
        k(   38) = (   0.0833333   0.0833333   0.2500000), wk =   0.0208333
        k(   39) = (   0.0833333   0.0833333   0.3750000), wk =   0.0208333
        k(   40) = (   0.0833333   0.0833333  -0.5000000), wk =   0.0104167
        k(   41) = (   0.0833333   0.1666667   0.0000000), wk =   0.0208333
        k(   42) = (   0.0833333   0.1666667   0.1250000), wk =   0.0416667
        k(   43) = (   0.0833333   0.1666667   0.2500000), wk =   0.0416667
        k(   44) = (   0.0833333   0.1666667   0.3750000), wk =   0.0416667
        k(   45) = (   0.0833333   0.1666667  -0.5000000), wk =   0.0208333
        k(   46) = (   0.0833333   0.2500000   0.0000000), wk =   0.0208333
        k(   47) = (   0.0833333   0.2500000   0.1250000), wk =   0.0416667
        k(   48) = (   0.0833333   0.2500000   0.2500000), wk =   0.0416667
        k(   49) = (   0.0833333   0.2500000   0.3750000), wk =   0.0416667
        k(   50) = (   0.0833333   0.2500000  -0.5000000), wk =   0.0208333
        k(   51) = (   0.0833333   0.3333333   0.0000000), wk =   0.0208333
        k(   52) = (   0.0833333   0.3333333   0.1250000), wk =   0.0416667
        k(   53) = (   0.0833333   0.3333333   0.2500000), wk =   0.0416667
        k(   54) = (   0.0833333   0.3333333   0.3750000), wk =   0.0416667
        k(   55) = (   0.0833333   0.3333333  -0.5000000), wk =   0.0208333
        k(   56) = (   0.0833333   0.4166667   0.0000000), wk =   0.0208333
        k(   57) = (   0.0833333   0.4166667   0.1250000), wk =   0.0416667
        k(   58) = (   0.0833333   0.4166667   0.2500000), wk =   0.0416667
        k(   59) = (   0.0833333   0.4166667   0.3750000), wk =   0.0416667
        k(   60) = (   0.0833333   0.4166667  -0.5000000), wk =   0.0208333
        k(   61) = (   0.1666667   0.1666667   0.0000000), wk =   0.0104167
        k(   62) = (   0.1666667   0.1666667   0.1250000), wk =   0.0208333
        k(   63) = (   0.1666667   0.1666667   0.2500000), wk =   0.0208333
        k(   64) = (   0.1666667   0.1666667   0.3750000), wk =   0.0208333
        k(   65) = (   0.1666667   0.1666667  -0.5000000), wk =   0.0104167
        k(   66) = (   0.1666667   0.2500000   0.0000000), wk =   0.0208333
        k(   67) = (   0.1666667   0.2500000   0.1250000), wk =   0.0416667
        k(   68) = (   0.1666667   0.2500000   0.2500000), wk =   0.0416667
        k(   69) = (   0.1666667   0.2500000   0.3750000), wk =   0.0416667
        k(   70) = (   0.1666667   0.2500000  -0.5000000), wk =   0.0208333
        k(   71) = (   0.1666667   0.3333333   0.0000000), wk =   0.0208333
        k(   72) = (   0.1666667   0.3333333   0.1250000), wk =   0.0416667
        k(   73) = (   0.1666667   0.3333333   0.2500000), wk =   0.0416667
        k(   74) = (   0.1666667   0.3333333   0.3750000), wk =   0.0416667
        k(   75) = (   0.1666667   0.3333333  -0.5000000), wk =   0.0208333
        k(   76) = (   0.1666667   0.4166667   0.0000000), wk =   0.0104167
        k(   77) = (   0.1666667   0.4166667   0.1250000), wk =   0.0208333
        k(   78) = (   0.1666667   0.4166667   0.2500000), wk =   0.0208333
        k(   79) = (   0.1666667   0.4166667   0.3750000), wk =   0.0208333
        k(   80) = (   0.1666667   0.4166667  -0.5000000), wk =   0.0104167
        k(   81) = (   0.2500000   0.2500000   0.0000000), wk =   0.0104167
        k(   82) = (   0.2500000   0.2500000   0.1250000), wk =   0.0208333
        k(   83) = (   0.2500000   0.2500000   0.2500000), wk =   0.0208333
        k(   84) = (   0.2500000   0.2500000   0.3750000), wk =   0.0208333
        k(   85) = (   0.2500000   0.2500000  -0.5000000), wk =   0.0104167
        k(   86) = (   0.2500000   0.3333333   0.0000000), wk =   0.0208333
        k(   87) = (   0.2500000   0.3333333   0.1250000), wk =   0.0416667
        k(   88) = (   0.2500000   0.3333333   0.2500000), wk =   0.0416667
        k(   89) = (   0.2500000   0.3333333   0.3750000), wk =   0.0416667
        k(   90) = (   0.2500000   0.3333333  -0.5000000), wk =   0.0208333
        k(   91) = (   0.3333333   0.3333333   0.0000000), wk =   0.0034722
        k(   92) = (   0.3333333   0.3333333   0.1250000), wk =   0.0069444
        k(   93) = (   0.3333333   0.3333333   0.2500000), wk =   0.0069444
        k(   94) = (   0.3333333   0.3333333   0.3750000), wk =   0.0069444
        k(   95) = (   0.3333333   0.3333333  -0.5000000), wk =   0.0034722

     Dense  grid:   122225 G-vectors     FFT dimensions: (  60,  60,  90)

     Smooth grid:    43245 G-vectors     FFT dimensions: (  40,  40,  64)

     Dynamical RAM for                 wfc:       2.55 MB

     Dynamical RAM for     wfc (w. buffer):     245.26 MB

     Dynamical RAM for           str. fact:       3.73 MB

     Dynamical RAM for           local pot:       0.00 MB

     Dynamical RAM for          nlocal pot:       4.29 MB

     Dynamical RAM for                qrad:       4.54 MB

     Dynamical RAM for          rho,v,vnew:      13.01 MB

     Dynamical RAM for               rhoin:       4.34 MB

     Dynamical RAM for            rho*nmix:      29.84 MB

     Dynamical RAM for           G-vectors:       7.32 MB

     Dynamical RAM for          h,s,v(r/c):       0.18 MB

     Dynamical RAM for          <psi|beta>:       0.02 MB

     Dynamical RAM for                 psi:       5.11 MB

     Dynamical RAM for                hpsi:       5.11 MB

     Dynamical RAM for                spsi:       5.11 MB

     Dynamical RAM for      wfcinit/wfcrot:       5.63 MB

     Dynamical RAM for           addusdens:     350.62 MB

     Dynamical RAM for          addusforce:     355.29 MB

     Dynamical RAM for         addusstress:     374.87 MB

     Estimated static dynamical RAM per process >     300.44 MB

     Estimated max dynamical RAM per process >     705.15 MB

     Initial potential from superposition of free atoms

     starting charge      51.9997, renormalised to      52.0000
     Starting wfcs are   34 randomized atomic wfcs
     Checking if some PAW data can be deallocated... 

     total cpu time spent up to now is       87.0 secs

     Self-consistent Calculation

     iteration #  1     ecut=   100.00 Ry     beta= 0.40
     Davidson diagonalization with overlap

---- Real-time Memory Report at c_bands before calling an iterative solver
           431 MiB given to the printing process from OS
             0 MiB allocation reported by mallinfo(arena+hblkhd)
          4780 MiB available memory on the node where the printing process lives
------------------
     ethr =  1.00E-02,  avg # of iterations =  3.0

     total cpu time spent up to now is      370.6 secs

     WARNING: integrated charge=    52.00005415, expected=    52.00000000

     total energy              =   -1006.32640789 Ry
     estimated scf accuracy    <       0.85780029 Ry

     iteration #  2     ecut=   100.00 Ry     beta= 0.40
     Davidson diagonalization with overlap

---- Real-time Memory Report at c_bands before calling an iterative solver
           710 MiB given to the printing process from OS
             0 MiB allocation reported by mallinfo(arena+hblkhd)
          4723 MiB available memory on the node where the printing process lives
------------------
     ethr =  1.65E-03,  avg # of iterations =  2.0

     total cpu time spent up to now is      486.9 secs

     WARNING: integrated charge=    52.00153639, expected=    52.00000000

     total energy              =   -1006.55782555 Ry
     estimated scf accuracy    <       0.10212815 Ry

     iteration #  3     ecut=   100.00 Ry     beta= 0.40
     Davidson diagonalization with overlap

---- Real-time Memory Report at c_bands before calling an iterative solver
           712 MiB given to the printing process from OS
             0 MiB allocation reported by mallinfo(arena+hblkhd)
          4717 MiB available memory on the node where the printing process lives
------------------
     ethr =  1.96E-04,  avg # of iterations =  2.4

     total cpu time spent up to now is      534.9 secs

     WARNING: integrated charge=    52.00245244, expected=    52.00000000

     total energy              =   -1006.57257289 Ry
     estimated scf accuracy    <       0.00928017 Ry

     iteration #  4     ecut=   100.00 Ry     beta= 0.40
     Davidson diagonalization with overlap

---- Real-time Memory Report at c_bands before calling an iterative solver
           713 MiB given to the printing process from OS
             0 MiB allocation reported by mallinfo(arena+hblkhd)
          4714 MiB available memory on the node where the printing process lives
------------------
     ethr =  1.78E-05,  avg # of iterations =  3.9

     total cpu time spent up to now is      602.2 secs

     WARNING: integrated charge=    52.00288664, expected=    52.00000000

     total energy              =   -1006.57322089 Ry
     estimated scf accuracy    <       0.00176512 Ry

     iteration #  5     ecut=   100.00 Ry     beta= 0.40
     Davidson diagonalization with overlap

---- Real-time Memory Report at c_bands before calling an iterative solver
           714 MiB given to the printing process from OS
             0 MiB allocation reported by mallinfo(arena+hblkhd)
          4714 MiB available memory on the node where the printing process lives
------------------
     ethr =  3.39E-06,  avg # of iterations =  2.7

     total cpu time spent up to now is      652.8 secs

     WARNING: integrated charge=    52.00275862, expected=    52.00000000

     total energy              =   -1006.57325614 Ry
     estimated scf accuracy    <       0.00005012 Ry

     iteration #  6     ecut=   100.00 Ry     beta= 0.40
     Davidson diagonalization with overlap

---- Real-time Memory Report at c_bands before calling an iterative solver
           716 MiB given to the printing process from OS
             0 MiB allocation reported by mallinfo(arena+hblkhd)
          4713 MiB available memory on the node where the printing process lives
------------------
     ethr =  9.64E-08,  avg # of iterations =  3.1

     total cpu time spent up to now is      734.4 secs

     WARNING: integrated charge=    52.00280873, expected=    52.00000000

     total energy              =   -1006.57322393 Ry
     estimated scf accuracy    <       0.00009014 Ry

     iteration #  7     ecut=   100.00 Ry     beta= 0.40
     Davidson diagonalization with overlap

---- Real-time Memory Report at c_bands before calling an iterative solver
           717 MiB given to the printing process from OS
             0 MiB allocation reported by mallinfo(arena+hblkhd)
          4798 MiB available memory on the node where the printing process lives
------------------
     ethr =  9.64E-08,  avg # of iterations =  2.0

     total cpu time spent up to now is      801.0 secs

     WARNING: integrated charge=    52.00279320, expected=    52.00000000

     total energy              =   -1006.57328098 Ry
     estimated scf accuracy    <       0.00000021 Ry

     iteration #  8     ecut=   100.00 Ry     beta= 0.40
     Davidson diagonalization with overlap

---- Real-time Memory Report at c_bands before calling an iterative solver
           718 MiB given to the printing process from OS
             0 MiB allocation reported by mallinfo(arena+hblkhd)
          4798 MiB available memory on the node where the printing process lives
------------------
     ethr =  4.05E-10,  avg # of iterations =  3.8

     total cpu time spent up to now is      867.0 secs

     WARNING: integrated charge=    52.00278475, expected=    52.00000000

     total energy              =   -1006.57328098 Ry
     estimated scf accuracy    <       0.00000038 Ry

     iteration #  9     ecut=   100.00 Ry     beta= 0.40
     Davidson diagonalization with overlap

---- Real-time Memory Report at c_bands before calling an iterative solver
           720 MiB given to the printing process from OS
             0 MiB allocation reported by mallinfo(arena+hblkhd)
          4810 MiB available memory on the node where the printing process lives
------------------
     ethr =  4.05E-10,  avg # of iterations =  3.0

     total cpu time spent up to now is      913.3 secs

     WARNING: integrated charge=    52.00278783, expected=    52.00000000

     total energy              =   -1006.57327991 Ry
     estimated scf accuracy    <       0.00000016 Ry

     iteration # 10     ecut=   100.00 Ry     beta= 0.40
     Davidson diagonalization with overlap

---- Real-time Memory Report at c_bands before calling an iterative solver
           721 MiB given to the printing process from OS
             0 MiB allocation reported by mallinfo(arena+hblkhd)
          4811 MiB available memory on the node where the printing process lives
------------------
     ethr =  3.13E-10,  avg # of iterations =  2.0

     total cpu time spent up to now is      950.4 secs

     End of self-consistent calculation

          k = 0.0000 0.0000 0.0000 (  5359 PWs)   bands (ev):

  -114.5444-114.5442 -68.7473 -68.7441 -68.7419 -68.7419 -68.7413 -68.7413
    -9.2187  -8.4850   3.1593   3.1593   3.2045   3.2300   3.3536   3.3536
     4.3452   4.3452   4.5569   4.5569   4.8343   8.0956   8.0956   8.8041
     8.8946   8.8946   9.6962  14.1528  17.1085  21.8515  21.8515

     occupation numbers 
     1.0000   1.0000   1.0000   1.0000   1.0000   1.0000   1.0000   1.0000
     1.0000   1.0000   1.0000   1.0000   1.0000   1.0000   1.0000   1.0000
     1.0000   1.0000   1.0000   1.0000   1.0000   1.0000   1.0000   1.0063
     1.0135   1.0135   0.7063   0.0000   0.0000   0.0000   0.0000

          k = 0.0000 0.0000 0.0775 (  5413 PWs)   bands (ev):

  -114.5444-114.5442 -68.7472 -68.7442 -68.7418 -68.7418 -68.7413 -68.7413
    -9.1923  -8.5145   3.1587   3.1631   3.1631   3.1751   3.3422   3.3422
     4.3563   4.3563   4.5523   4.5523   5.0165   8.1265   8.1265   8.4379
     8.8649   8.8649  10.1126  14.0140  17.2311  21.8522  21.8522

     occupation numbers 
     1.0000   1.0000   1.0000   1.0000   1.0000   1.0000   1.0000   1.0000
     1.0000   1.0000   1.0000   1.0000   1.0000   1.0000   1.0000   1.0000
     1.0000   1.0000   1.0000   1.0000   1.0000   1.0000   1.0000   1.0001
     1.0106   1.0106   0.0972   0.0000   0.0000   0.0000   0.0000

          k = 0.0000 0.0000 0.1550 (  5425 PWs)   bands (ev):

  -114.5443-114.5442 -68.7468 -68.7446 -68.7418 -68.7418 -68.7414 -68.7414
    -9.1164  -8.5978   3.0322   3.0996   3.1757   3.1757   3.3119   3.3119
     4.3866   4.3866   4.5375   4.5375   5.4617   7.8539   8.2146   8.2146
     8.7800   8.7800  10.8291  13.6279  17.5892  21.1991  21.8742

     occupation numbers 
     1.0000   1.0000   1.0000   1.0000   1.0000   1.0000   1.0000   1.0000
     1.0000   1.0000   1.0000   1.0000   1.0000   1.0000   1.0000   1.0000
     1.0000   1.0000   1.0000   1.0000   1.0000   1.0000   1.0000   1.0000
     1.0050   1.0050   0.0000   0.0000   0.0000   0.0000   0.0000

          k = 0.0000 0.0000 0.2325 (  5402 PWs)   bands (ev):

  -114.5443-114.5442 -68.7463 -68.7451 -68.7417 -68.7417 -68.7415 -68.7415
    -9.0012  -8.7206   2.9533   3.0113   3.1984   3.1984   3.2716   3.2716
     4.4285   4.4285   4.5106   4.5106   6.0292   7.2502   8.3458   8.3458
     8.6519   8.6519  11.6011  13.0565  18.1734  20.0145  21.9582

     occupation numbers 
     1.0000   1.0000   1.0000   1.0000   1.0000   1.0000   1.0000   1.0000
     1.0000   1.0000   1.0000   1.0000   1.0000   1.0000   1.0000   1.0000
     1.0000   1.0000   1.0000   1.0000   1.0000   1.0000   1.0000   1.0000
     1.0013   1.0013   0.0000   0.0000   0.0000   0.0000   0.0000

          k = 0.0000 0.0000-0.3100 (  5408 PWs)   bands (ev):

  -114.5443-114.5443 -68.7457 -68.7457 -68.7416 -68.7416 -68.7416 -68.7416
    -8.8624  -8.8624   2.9510   2.9510   3.2314   3.2314   3.2314   3.2314
     4.4727   4.4727   4.4727   4.4727   6.6382   6.6382   8.4995   8.4995
     8.4995   8.4995  12.3619  12.3619  18.9854  18.9854  22.1339

     occupation numbers 
     1.0000   1.0000   1.0000   1.0000   1.0000   1.0000   1.0000   1.0000
     1.0000   1.0000   1.0000   1.0000   1.0000   1.0000   1.0000   1.0000
     1.0000   1.0000   1.0000   1.0000   1.0000   1.0000   1.0002   1.0002
     1.0002   1.0002   0.0000   0.0000   0.0000   0.0000   0.0000

          k = 0.0000 0.0962 0.0000 (  5387 PWs)   bands (ev):

  -114.5444-114.5442 -68.7472 -68.7441 -68.7420 -68.7419 -68.7414 -68.7413
    -9.1795  -8.4673   3.1135   3.1818   3.2300   3.2826   3.3541   3.3851
     4.3287   4.3427   4.5604   4.5868   4.8254   7.8383   8.0012   8.4156
     8.7586   8.8442  10.2636  14.4478  17.1067  21.0853  21.9170

     occupation numbers 
     1.0000   1.0000   1.0000   1.0000   1.0000   1.0000   1.0000   1.0000
     1.0000   1.0000   1.0000   1.0000   1.0000   1.0000   1.0000   1.0000
     1.0000   1.0000   1.0000   1.0000   1.0000   1.0000   1.0000   1.0001
     1.0041   1.0089   0.0292   0.0000   0.0000   0.0000   0.0000

          k = 0.0000 0.0962 0.0775 (  5408 PWs)   bands (ev):

  -114.5444-114.5442 -68.7471 -68.7442 -68.7420 -68.7419 -68.7415 -68.7413
    -9.1538  -8.4958   3.0988   3.1860   3.1876   3.2242   3.3540   3.3734
     4.3415   4.3537   4.5553   4.5716   5.0225   7.8691   8.0340   8.2007
     8.7362   8.8130  10.5224  14.2955  17.2336  21.1087  21.9183

     occupation numbers 
     1.0000   1.0000   1.0000   1.0000   1.0000   1.0000   1.0000   1.0000
     1.0000   1.0000   1.0000   1.0000   1.0000   1.0000   1.0000   1.0000
     1.0000   1.0000   1.0000   1.0000   1.0000   1.0000   1.0000   1.0000
     1.0032   1.0068   0.0020   0.0000   0.0000   0.0000   0.0000

          k = 0.0000 0.0962 0.1550 (  5399 PWs)   bands (ev):

  -114.5443-114.5442 -68.7468 -68.7446 -68.7419 -68.7418 -68.7415 -68.7414
    -9.0798  -8.5763   3.0338   3.0558   3.1996   3.2126   3.3293   3.3421
     4.3758   4.3840   4.5391   4.5483   5.4798   7.7310   7.9834   8.1273
     8.6389   8.7235  11.1143  13.8812  17.5963  21.0295  21.3761

     occupation numbers 
     1.0000   1.0000   1.0000   1.0000   1.0000   1.0000   1.0000   1.0000
     1.0000   1.0000   1.0000   1.0000   1.0000   1.0000   1.0000   1.0000
     1.0000   1.0000   1.0000   1.0000   1.0000   1.0000   1.0000   1.0000
     1.0011   1.0029   0.0000   0.0000   0.0000   0.0000   0.0000

          k = 0.0000 0.0962 0.2325 (  5395 PWs)   bands (ev):

  -114.5443-114.5442 -68.7463 -68.7451 -68.7418 -68.7417 -68.7416 -68.7415
    -8.9676  -8.6952   2.9439   2.9770   3.2238   3.2247   3.2913   3.3004
     4.4229   4.4263   4.5106   4.5157   6.0461   7.2074   8.1242   8.2659
     8.4833   8.5887  11.8343  13.2853  18.1761  19.9784  21.4192

     occupation numbers 
     1.0000   1.0000   1.0000   1.0000   1.0000   1.0000   1.0000   1.0000
     1.0000   1.0000   1.0000   1.0000   1.0000   1.0000   1.0000   1.0000
     1.0000   1.0000   1.0000   1.0000   1.0000   1.0000   1.0000   1.0000
     1.0002   1.0006   0.0000   0.0000   0.0000   0.0000   0.0000

          k = 0.0000 0.0962-0.3100 (  5406 PWs)   bands (ev):

  -114.5443-114.5443 -68.7457 -68.7457 -68.7417 -68.7417 -68.7416 -68.7416
    -8.8328  -8.8328   2.9284   2.9284   3.2533   3.2533   3.2585   3.2585
     4.4712   4.4712   4.4724   4.4724   6.6369   6.6369   8.3014   8.3014
     8.4281   8.4281  12.5812  12.5812  18.9737  18.9737  21.6503

     occupation numbers 
     1.0000   1.0000   1.0000   1.0000   1.0000   1.0000   1.0000   1.0000
     1.0000   1.0000   1.0000   1.0000   1.0000   1.0000   1.0000   1.0000
     1.0000   1.0000   1.0000   1.0000   1.0000   1.0000   1.0000   1.0000
     1.0001   1.0001   0.0000   0.0000   0.0000   0.0000   0.0000

          k = 0.0000 0.1925 0.0000 (  5405 PWs)   bands (ev):

  -114.5443-114.5442 -68.7470 -68.7442 -68.7424 -68.7420 -68.7419 -68.7414
    -9.0693  -8.4204   3.0093   3.2410   3.2658   3.3403   3.4759   3.4796
     4.2844   4.3437   4.5687   4.6729   4.8049   7.1779   7.7448   7.7823
     8.6172   8.7019  11.1718  15.1686  17.0961  19.7669  21.5055

     occupation numbers 
     1.0000   1.0000   1.0000   1.0000   1.0000   1.0000   1.0000   1.0000
     1.0000   1.0000   1.0000   1.0000   1.0000   1.0000   1.0000   1.0000
     1.0000   1.0000   1.0000   1.0000   1.0000   1.0000   1.0000   1.0000
     1.0009   1.0023   0.0000   0.0000   0.0000   0.0000   0.0000

          k = 0.0000 0.1925 0.0775 (  5413 PWs)   bands (ev):

  -114.5443-114.5442 -68.7469 -68.7443 -68.7424 -68.7420 -68.7419 -68.7414
    -9.0455  -8.4459   2.9914   3.2092   3.2466   3.3098   3.4457   3.4629
     4.3029   4.3542   4.5623   4.6201   5.0501   7.2115   7.6883   7.7825
     8.5746   8.6666  11.3296  14.9724  17.2375  19.8030  21.4141

     occupation numbers 
     1.0000   1.0000   1.0000   1.0000   1.0000   1.0000   1.0000   1.0000
     1.0000   1.0000   1.0000   1.0000   1.0000   1.0000   1.0000   1.0000
     1.0000   1.0000   1.0000   1.0000   1.0000   1.0000   1.0000   1.0000
     1.0005   1.0016   0.0000   0.0000   0.0000   0.0000   0.0000

          k = 0.0000 0.1925 0.1550 (  5402 PWs)   bands (ev):

  -114.5443-114.5442 -68.7466 -68.7447 -68.7423 -68.7419 -68.7419 -68.7415
    -8.9773  -8.5183   2.9422   3.0526   3.2637   3.2900   3.4000   3.4282
     4.3495   4.3833   4.5430   4.5774   5.5296   7.2504   7.5178   7.8895
     8.4247   8.5656  11.7640  14.4776  17.6046  19.8548  21.0490

     occupation numbers 
     1.0000   1.0000   1.0000   1.0000   1.0000   1.0000   1.0000   1.0000
     1.0000   1.0000   1.0000   1.0000   1.0000   1.0000   1.0000   1.0000
     1.0000   1.0000   1.0000   1.0000   1.0000   1.0000   1.0000   1.0000
     1.0001   1.0005   0.0000   0.0000   0.0000   0.0000   0.0000

          k = 0.0000 0.1925 0.2325 (  5383 PWs)   bands (ev):

  -114.5443-114.5442 -68.7462 -68.7451 -68.7422 -68.7420 -68.7418 -68.7416
    -8.8741  -8.6256   2.8872   2.9253   3.2931   3.2941   3.3561   3.3815
     4.4107   4.4246   4.5112   4.5311   6.0729   7.0019   7.6203   8.0476
     8.1722   8.4134  12.3848  13.8211  18.1439  19.5643  20.6981

     occupation numbers 
     1.0000   1.0000   1.0000   1.0000   1.0000   1.0000   1.0000   1.0000
     1.0000   1.0000   1.0000   1.0000   1.0000   1.0000   1.0000   1.0000
     1.0000   1.0000   1.0000   1.0000   1.0000   1.0000   1.0000   1.0000
     1.0000   1.0001   0.0000   0.0000   0.0000   0.0000   0.0000

          k = 0.0000 0.1925-0.3100 (  5396 PWs)   bands (ev):

  -114.5443-114.5443 -68.7457 -68.7457 -68.7421 -68.7421 -68.7417 -68.7417
    -8.7507  -8.7507   2.8716   2.8716   3.3182   3.3182   3.3338   3.3338
     4.4698   4.4698   4.4742   4.4743   6.5814   6.5814   7.8784   7.8784
     8.2317   8.2317  13.0977  13.0977  18.8358  18.8358  20.8678

     occupation numbers 
     1.0000   1.0000   1.0000   1.0000   1.0000   1.0000   1.0000   1.0000
     1.0000   1.0000   1.0000   1.0000   1.0000   1.0000   1.0000   1.0000
     1.0000   1.0000   1.0000   1.0000   1.0000   1.0000   1.0000   1.0000
     1.0000   1.0000   0.0000   0.0000   0.0000   0.0000   0.0000

          k = 0.0000 0.2887 0.0000 (  5407 PWs)   bands (ev):

  -114.5443-114.5442 -68.7468 -68.7444 -68.7429 -68.7424 -68.7422 -68.7415
    -8.9094  -8.3610   2.9045   3.2469   3.3138   3.4356   3.6138   3.7218
     4.2321   4.3665   4.5786   4.7304   4.8641   6.3893   7.1780   7.3911
     8.3793   8.4973  12.1639  15.9664  17.0549  18.5746  20.5510

     occupation numbers 
     1.0000   1.0000   1.0000   1.0000   1.0000   1.0000   1.0000   1.0000
     1.0000   1.0000   1.0000   1.0000   1.0000   1.0000   1.0000   1.0000
     1.0000   1.0000   1.0000   1.0000   1.0000   1.0000   1.0000   1.0000
     1.0000   1.0002   0.0000   0.0000   0.0000   0.0000   0.0000

          k = 0.0000 0.2887 0.0775 (  5406 PWs)   bands (ev):

  -114.5443-114.5442 -68.7467 -68.7445 -68.7429 -68.7424 -68.7422 -68.7416
    -8.8887  -8.3820   2.8868   3.1888   3.3219   3.4203   3.5982   3.6381
     4.2617   4.3752   4.5709   4.6692   5.1229   6.4382   7.1179   7.4359
     8.3602   8.4570  12.2578  15.6913  17.2295  18.6176  20.5111

     occupation numbers 
     1.0000   1.0000   1.0000   1.0000   1.0000   1.0000   1.0000   1.0000
     1.0000   1.0000   1.0000   1.0000   1.0000   1.0000   1.0000   1.0000
     1.0000   1.0000   1.0000   1.0000   1.0000   1.0000   1.0000   1.0000
     1.0000   1.0001   0.0000   0.0000   0.0000   0.0000   0.0000

          k = 0.0000 0.2887 0.1550 (  5414 PWs)   bands (ev):

  -114.5443-114.5442 -68.7465 -68.7448 -68.7428 -68.7424 -68.7421 -68.7416
    -8.8297  -8.4416   2.8432   3.0361   3.3462   3.3978   3.5327   3.5562
     4.3260   4.3997   4.5491   4.6162   5.5757   6.5571   7.0159   7.5618
     8.2467   8.3417  12.5512  15.0992  17.5728  18.7063  20.3596

     occupation numbers 
     1.0000   1.0000   1.0000   1.0000   1.0000   1.0000   1.0000   1.0000
     1.0000   1.0000   1.0000   1.0000   1.0000   1.0000   1.0000   1.0000
     1.0000   1.0000   1.0000   1.0000   1.0000   1.0000   1.0000   1.0000
     1.0000   1.0000   0.0000   0.0000   0.0000   0.0000   0.0000

          k = 0.0000 0.2887 0.2325 (  5382 PWs)   bands (ev):

  -114.5443-114.5442 -68.7461 -68.7452 -68.7427 -68.7425 -68.7420 -68.7417
    -8.7412  -8.5310   2.8036   2.8876   3.3861   3.3960   3.4646   3.4990
     4.4045   4.4354   4.5161   4.5564   5.9992   6.5352   7.1583   7.7463
     7.9718   8.1675  13.0428  14.3966  17.9776  18.6837  20.2544

     occupation numbers 
     1.0000   1.0000   1.0000   1.0000   1.0000   1.0000   1.0000   1.0000
     1.0000   1.0000   1.0000   1.0000   1.0000   1.0000   1.0000   1.0000
     1.0000   1.0000   1.0000   1.0000   1.0000   1.0000   1.0000   1.0000
     1.0000   1.0000   0.0000   0.0000   0.0000   0.0000   0.0000

          k = 0.0000 0.2887-0.3100 (  5380 PWs)   bands (ev):

  -114.5442-114.5442 -68.7457 -68.7457 -68.7426 -68.7426 -68.7419 -68.7419
    -8.6362  -8.6362   2.8090   2.8090   3.4193   3.4193   3.4390   3.4390
     4.4763   4.4763   4.4844   4.4844   6.3164   6.3164   7.5641   7.5641
     7.9589   7.9589  13.6837  13.6837  18.3959  18.3959  20.4823

     occupation numbers 
     1.0000   1.0000   1.0000   1.0000   1.0000   1.0000   1.0000   1.0000
     1.0000   1.0000   1.0000   1.0000   1.0000   1.0000   1.0000   1.0000
     1.0000   1.0000   1.0000   1.0000   1.0000   1.0000   1.0000   1.0000
     1.0000   1.0000   0.0000   0.0000   0.0000   0.0000   0.0000

          k = 0.0000 0.3849 0.0000 (  5413 PWs)   bands (ev):

  -114.5443-114.5442 -68.7465 -68.7446 -68.7435 -68.7430 -68.7424 -68.7417
    -8.7331  -8.3122   2.8564   3.2105   3.3732   3.5737   3.7726   3.8916
     4.2539   4.4202   4.5895   4.7339   5.0109   5.7144   6.6157   7.0223
     8.0636   8.2810  13.1762  16.4500  16.8700  17.7459  19.9454

     occupation numbers 
     1.0000   1.0000   1.0000   1.0000   1.0000   1.0000   1.0000   1.0000
     1.0000   1.0000   1.0000   1.0000   1.0000   1.0000   1.0000   1.0000
     1.0000   1.0000   1.0000   1.0000   1.0000   1.0000   1.0000   1.0000
     1.0000   1.0000   0.0000   0.0000   0.0000   0.0000   0.0000

          k = 0.0000 0.3849 0.0775 (  5398 PWs)   bands (ev):

  -114.5443-114.5442 -68.7464 -68.7447 -68.7434 -68.7430 -68.7424 -68.7417
    -8.7166  -8.3275   2.8373   3.1530   3.3848   3.5571   3.7528   3.8023
     4.2780   4.4259   4.5813   4.7087   5.1805   5.7985   6.5874   7.0752
     8.0785   8.2359  13.2120  16.0787  17.1350  17.7753  19.9309

     occupation numbers 
     1.0000   1.0000   1.0000   1.0000   1.0000   1.0000   1.0000   1.0000
     1.0000   1.0000   1.0000   1.0000   1.0000   1.0000   1.0000   1.0000
     1.0000   1.0000   1.0000   1.0000   1.0000   1.0000   1.0000   1.0000
     1.0000   1.0000   0.0000   0.0000   0.0000   0.0000   0.0000

          k = 0.0000 0.3849 0.1550 (  5409 PWs)   bands (ev):

  -114.5442-114.5442 -68.7463 -68.7450 -68.7433 -68.7429 -68.7423 -68.7418
    -8.6698  -8.3716   2.7920   3.0063   3.4190   3.5289   3.6764   3.6988
     4.3427   4.4423   4.5594   4.6580   5.4437   5.9796   6.6315   7.2225
     8.0512   8.1069  13.3570  15.4728  17.4468  17.8562  19.8875

     occupation numbers 
     1.0000   1.0000   1.0000   1.0000   1.0000   1.0000   1.0000   1.0000
     1.0000   1.0000   1.0000   1.0000   1.0000   1.0000   1.0000   1.0000
     1.0000   1.0000   1.0000   1.0000   1.0000   1.0000   1.0000   1.0000
     1.0000   1.0000   0.0000   0.0000   0.0000   0.0000   0.0000

          k = 0.0000 0.3849 0.2325 (  5403 PWs)   bands (ev):

  -114.5442-114.5442 -68.7461 -68.7454 -68.7431 -68.7429 -68.7422 -68.7419
    -8.6001  -8.4386   2.7550   2.8554   3.4740   3.5211   3.5935   3.6243
     4.4261   4.4672   4.5297   4.5909   5.6508   5.9716   6.9984   7.4351
     7.8635   7.9117  13.6781  14.8135  17.6852  17.9173  19.9754

     occupation numbers 
     1.0000   1.0000   1.0000   1.0000   1.0000   1.0000   1.0000   1.0000
     1.0000   1.0000   1.0000   1.0000   1.0000   1.0000   1.0000   1.0000
     1.0000   1.0000   1.0000   1.0000   1.0000   1.0000   1.0000   1.0000
     1.0000   1.0000   0.0000   0.0000   0.0000   0.0000   0.0000

          k = 0.0000 0.3849-0.3100 (  5396 PWs)   bands (ev):

  -114.5442-114.5442 -68.7458 -68.7458 -68.7430 -68.7430 -68.7420 -68.7420
    -8.5188  -8.5188   2.7678   2.7678   3.5430   3.5430   3.5452   3.5452
     4.4975   4.4975   4.5118   4.5118   5.8284   5.8284   7.4842   7.4842
     7.6769   7.6769  14.1851  14.1851  17.8543  17.8543  20.3744

     occupation numbers 
     1.0000   1.0000   1.0000   1.0000   1.0000   1.0000   1.0000   1.0000
     1.0000   1.0000   1.0000   1.0000   1.0000   1.0000   1.0000   1.0000
     1.0000   1.0000   1.0000   1.0000   1.0000   1.0000   1.0000   1.0000
     1.0000   1.0000   0.0000   0.0000   0.0000   0.0000   0.0000

          k = 0.0000 0.4811 0.0000 (  5393 PWs)   bands (ev):

  -114.5442-114.5442 -68.7462 -68.7448 -68.7438 -68.7434 -68.7425 -68.7417
    -8.5840  -8.2926   2.8876   3.1655   3.4066   3.7203   3.8641   3.9054
     4.3538   4.4863   4.6005   4.7997   4.9672   5.4566   6.1850   6.7321
     7.7466   8.1139  14.1290  16.2777  16.5211  17.4876  19.6253

     occupation numbers 
     1.0000   1.0000   1.0000   1.0000   1.0000   1.0000   1.0000   1.0000
     1.0000   1.0000   1.0000   1.0000   1.0000   1.0000   1.0000   1.0000
     1.0000   1.0000   1.0000   1.0000   1.0000   1.0000   1.0000   1.0000
     1.0000   1.0000   0.0000   0.0000   0.0000   0.0000   0.0000

          k = 0.0000 0.4811 0.0775 (  5403 PWs)   bands (ev):

  -114.5442-114.5442 -68.7462 -68.7450 -68.7438 -68.7434 -68.7425 -68.7418
    -8.5719  -8.3025   2.8632   3.1070   3.4211   3.6997   3.8250   3.8807
     4.3754   4.4890   4.5922   4.7658   5.0105   5.5227   6.2642   6.7928
     7.7902   8.0654  14.0940  15.9694  16.7882  17.5098  19.5896

     occupation numbers 
     1.0000   1.0000   1.0000   1.0000   1.0000   1.0000   1.0000   1.0000
     1.0000   1.0000   1.0000   1.0000   1.0000   1.0000   1.0000   1.0000
     1.0000   1.0000   1.0000   1.0000   1.0000   1.0000   1.0000   1.0000
     1.0000   1.0000   0.0000   0.0000   0.0000   0.0000   0.0000

          k = 0.0000 0.4811 0.1550 (  5413 PWs)   bands (ev):

  -114.5442-114.5442 -68.7461 -68.7452 -68.7436 -68.7433 -68.7424 -68.7419
    -8.5378  -8.3314   2.8054   2.9674   3.4639   3.6645   3.7562   3.8132
     4.4306   4.4970   4.5723   4.7038   5.1062   5.5461   6.5816   6.9594
     7.8465   7.9266  14.0645  15.5101  17.0946  17.5539  19.5711

     occupation numbers 
     1.0000   1.0000   1.0000   1.0000   1.0000   1.0000   1.0000   1.0000
     1.0000   1.0000   1.0000   1.0000   1.0000   1.0000   1.0000   1.0000
     1.0000   1.0000   1.0000   1.0000   1.0000   1.0000   1.0000   1.0000
     1.0000   1.0000   0.0000   0.0000   0.0000   0.0000   0.0000

          k = 0.0000 0.4811 0.2325 (  5414 PWs)   bands (ev):

  -114.5442-114.5442 -68.7460 -68.7455 -68.7435 -68.7433 -68.7423 -68.7420
    -8.4879  -8.3760   2.7543   2.8296   3.5325   3.6493   3.6991   3.7201
     4.5001   4.5101   4.5492   4.6386   5.2230   5.4645   7.0556   7.1959
     7.7158   7.7737  14.1827  14.9961  17.3267  17.5589  19.7686

     occupation numbers 
     1.0000   1.0000   1.0000   1.0000   1.0000   1.0000   1.0000   1.0000
     1.0000   1.0000   1.0000   1.0000   1.0000   1.0000   1.0000   1.0000
     1.0000   1.0000   1.0000   1.0000   1.0000   1.0000   1.0000   1.0000
     1.0000   1.0000   0.0000   0.0000   0.0000   0.0000   0.0000

          k = 0.0000 0.4811-0.3100 (  5418 PWs)   bands (ev):

  -114.5442-114.5442 -68.7458 -68.7458 -68.7433 -68.7433 -68.7421 -68.7421
    -8.4308  -8.4308   2.7543   2.7543   3.6213   3.6213   3.6619   3.6619
     4.5278   4.5278   4.5709   4.5709   5.3467   5.3467   7.4609   7.4609
     7.4961   7.4961  14.5138  14.5138  17.4812  17.4812  20.2789

     occupation numbers 
     1.0000   1.0000   1.0000   1.0000   1.0000   1.0000   1.0000   1.0000
     1.0000   1.0000   1.0000   1.0000   1.0000   1.0000   1.0000   1.0000
     1.0000   1.0000   1.0000   1.0000   1.0000   1.0000   1.0000   1.0000
     1.0000   1.0000   0.0000   0.0000   0.0000   0.0000   0.0000

          k = 0.0000-0.5774 0.0000 (  5398 PWs)   bands (ev):

  -114.5442-114.5442 -68.7460 -68.7450 -68.7440 -68.7436 -68.7426 -68.7418
    -8.5196  -8.2944   2.9334   3.1296   3.4165   3.8048   3.8163   3.9578
     4.3796   4.5187   4.6055   4.6795   5.1511   5.3273   6.0524   6.6188
     7.5978   8.0506  14.7026  15.7833  16.4945  17.4522  19.5105

     occupation numbers 
     1.0000   1.0000   1.0000   1.0000   1.0000   1.0000   1.0000   1.0000
     1.0000   1.0000   1.0000   1.0000   1.0000   1.0000   1.0000   1.0000
     1.0000   1.0000   1.0000   1.0000   1.0000   1.0000   1.0000   1.0000
     1.0000   1.0000   0.0000   0.0000   0.0000   0.0000   0.0000

          k = 0.0000-0.5774 0.0775 (  5418 PWs)   bands (ev):

  -114.5442-114.5442 -68.7460 -68.7451 -68.7439 -68.7435 -68.7425 -68.7418
    -8.5098  -8.3016   2.9052   3.0703   3.4322   3.7785   3.8014   3.9308
     4.4207   4.5201   4.5970   4.6793   5.1222   5.3005   6.2255   6.6830
     7.6524   8.0009  14.5881  15.6898  16.6287  17.4796  19.4624

     occupation numbers 
     1.0000   1.0000   1.0000   1.0000   1.0000   1.0000   1.0000   1.0000
     1.0000   1.0000   1.0000   1.0000   1.0000   1.0000   1.0000   1.0000
     1.0000   1.0000   1.0000   1.0000   1.0000   1.0000   1.0000   1.0000
     1.0000   1.0000   0.0000   0.0000   0.0000   0.0000   0.0000

          k = 0.0000-0.5774 0.1550 (  5404 PWs)   bands (ev):

  -114.5442-114.5442 -68.7460 -68.7453 -68.7438 -68.7434 -68.7424 -68.7419
    -8.4824  -8.3228   2.8371   2.9359   3.4783   3.7386   3.7678   3.8571
     4.5018   4.5246   4.5781   4.6759   5.0866   5.2382   6.6341   6.8582
     7.7443   7.8583  14.4106  15.4175  16.8991  17.5187  19.4422

     occupation numbers 
     1.0000   1.0000   1.0000   1.0000   1.0000   1.0000   1.0000   1.0000
     1.0000   1.0000   1.0000   1.0000   1.0000   1.0000   1.0000   1.0000
     1.0000   1.0000   1.0000   1.0000   1.0000   1.0000   1.0000   1.0000
     1.0000   1.0000   0.0000   0.0000   0.0000   0.0000   0.0000

          k = 0.0000-0.5774 0.2325 (  5418 PWs)   bands (ev):

  -114.5442-114.5442 -68.7460 -68.7456 -68.7436 -68.7434 -68.7423 -68.7420
    -8.4428  -8.3563   2.7710   2.8117   3.5523   3.7170   3.7354   3.7556
     4.5321   4.5587   4.5769   4.6622   5.0837   5.1698   7.1047   7.1083
     7.6417   7.7274  14.3976  15.0200  17.1556  17.4841  19.6739

     occupation numbers 
     1.0000   1.0000   1.0000   1.0000   1.0000   1.0000   1.0000   1.0000
     1.0000   1.0000   1.0000   1.0000   1.0000   1.0000   1.0000   1.0000
     1.0000   1.0000   1.0000   1.0000   1.0000   1.0000   1.0000   1.0000
     1.0000   1.0000   0.0000   0.0000   0.0000   0.0000   0.0000

          k = 0.0000-0.5774-0.3100 (  5428 PWs)   bands (ev):

  -114.5442-114.5442 -68.7458 -68.7458 -68.7434 -68.7434 -68.7422 -68.7422
    -8.3982  -8.3982   2.7536   2.7536   3.6483   3.6483   3.7167   3.7167
     4.5433   4.5433   4.6309   4.6309   5.1143   5.1143   7.3791   7.3791
     7.5077   7.5077  14.6272  14.6272  17.3547  17.3547  20.2246

     occupation numbers 
     1.0000   1.0000   1.0000   1.0000   1.0000   1.0000   1.0000   1.0000
     1.0000   1.0000   1.0000   1.0000   1.0000   1.0000   1.0000   1.0000
     1.0000   1.0000   1.0000   1.0000   1.0000   1.0000   1.0000   1.0000
     1.0000   1.0000   0.0000   0.0000   0.0000   0.0000   0.0000

          k = 0.0833 0.1443 0.0000 (  5409 PWs)   bands (ev):

  -114.5443-114.5442 -68.7471 -68.7442 -68.7423 -68.7420 -68.7417 -68.7414
    -9.1048  -8.4350   3.0553   3.1934   3.2681   3.3295   3.4273   3.4498
     4.3016   4.3388   4.5656   4.6466   4.8102   7.4401   7.6863   8.0351
     8.6662   8.7297  10.9228  14.9568  17.1034  20.1704  21.5792

     occupation numbers 
     1.0000   1.0000   1.0000   1.0000   1.0000   1.0000   1.0000   1.0000
     1.0000   1.0000   1.0000   1.0000   1.0000   1.0000   1.0000   1.0000
     1.0000   1.0000   1.0000   1.0000   1.0000   1.0000   1.0000   1.0000
     1.0016   1.0030   0.0000   0.0000   0.0000   0.0000   0.0000

          k = 0.0833 0.1443 0.0775 (  5409 PWs)   bands (ev):

  -114.5443-114.5442 -68.7470 -68.7443 -68.7422 -68.7420 -68.7417 -68.7414
    -9.0804  -8.4615   3.0375   3.1687   3.2611   3.2722   3.4080   3.4374
     4.3171   4.3506   4.5596   4.6065   5.0395   7.4792   7.6653   7.9693
     8.6256   8.6952  11.1016  14.7757  17.2394  20.2013  21.5791

     occupation numbers 
     1.0000   1.0000   1.0000   1.0000   1.0000   1.0000   1.0000   1.0000
     1.0000   1.0000   1.0000   1.0000   1.0000   1.0000   1.0000   1.0000
     1.0000   1.0000   1.0000   1.0000   1.0000   1.0000   1.0000   1.0000
     1.0010   1.0021   0.0000   0.0000   0.0000   0.0000   0.0000

          k = 0.0833 0.1443 0.1550 (  5413 PWs)   bands (ev):

  -114.5443-114.5442 -68.7467 -68.7446 -68.7422 -68.7419 -68.7417 -68.7415
    -9.0102  -8.5366   2.9860   3.0399   3.2503   3.2536   3.3741   3.4043
     4.3587   4.3813   4.5411   4.5691   5.5143   7.4662   7.5940   7.9687
     8.4886   8.5968  11.5751  14.3065  17.6065  20.2287  21.2956

     occupation numbers 
     1.0000   1.0000   1.0000   1.0000   1.0000   1.0000   1.0000   1.0000
     1.0000   1.0000   1.0000   1.0000   1.0000   1.0000   1.0000   1.0000
     1.0000   1.0000   1.0000   1.0000   1.0000   1.0000   1.0000   1.0000
     1.0002   1.0007   0.0000   0.0000   0.0000   0.0000   0.0000

          k = 0.0833 0.1443 0.2325 (  5390 PWs)   bands (ev):

  -114.5443-114.5442 -68.7462 -68.7451 -68.7421 -68.7419 -68.7418 -68.7416
    -8.9041  -8.6477   2.9232   2.9264   3.2615   3.2689   3.3365   3.3612
     4.4150   4.4236   4.5102   4.5268   6.0692   7.0868   7.7759   8.0921
     8.2727   8.4492  12.2245  13.6676  18.1646  19.7621  20.8761

     occupation numbers 
     1.0000   1.0000   1.0000   1.0000   1.0000   1.0000   1.0000   1.0000
     1.0000   1.0000   1.0000   1.0000   1.0000   1.0000   1.0000   1.0000
     1.0000   1.0000   1.0000   1.0000   1.0000   1.0000   1.0000   1.0000
     1.0000   1.0001   0.0000   0.0000   0.0000   0.0000   0.0000

          k = 0.0833 0.1443-0.3100 (  5410 PWs)   bands (ev):

  -114.5443-114.5443 -68.7457 -68.7457 -68.7420 -68.7420 -68.7417 -68.7417
    -8.7769  -8.7769   2.8910   2.8910   3.2800   3.2800   3.3242   3.3242
     4.4688   4.4688   4.4744   4.4744   6.6107   6.6107   8.0069   8.0069
     8.2772   8.2772  12.9486  12.9486  18.9050  18.9050  21.0554

     occupation numbers 
     1.0000   1.0000   1.0000   1.0000   1.0000   1.0000   1.0000   1.0000
     1.0000   1.0000   1.0000   1.0000   1.0000   1.0000   1.0000   1.0000
     1.0000   1.0000   1.0000   1.0000   1.0000   1.0000   1.0000   1.0000
     1.0000   1.0000   0.0000   0.0000   0.0000   0.0000   0.0000

          k = 0.0833 0.2406 0.0000 (  5419 PWs)   bands (ev):

  -114.5443-114.5442 -68.7469 -68.7443 -68.7427 -68.7423 -68.7421 -68.7415
    -8.9696  -8.3819   2.9678   3.2165   3.3050   3.3801   3.5687   3.6334
     4.2572   4.3464   4.5736   4.7314   4.8222   6.7692   7.2006   7.6086
     8.4817   8.5252  11.8317  15.7277  17.1029  19.0613  20.7634

     occupation numbers 
     1.0000   1.0000   1.0000   1.0000   1.0000   1.0000   1.0000   1.0000
     1.0000   1.0000   1.0000   1.0000   1.0000   1.0000   1.0000   1.0000
     1.0000   1.0000   1.0000   1.0000   1.0000   1.0000   1.0000   1.0000
     1.0002   1.0003   0.0000   0.0000   0.0000   0.0000   0.0000

          k = 0.0833 0.2406 0.0775 (  5411 PWs)   bands (ev):

  -114.5443-114.5442 -68.7468 -68.7444 -68.7427 -68.7423 -68.7420 -68.7416
    -8.9477  -8.4046   2.9488   3.1752   3.2988   3.3613   3.5523   3.5664
     4.2795   4.3597   4.5664   4.6571   5.0938   6.8131   7.1801   7.5998
     8.4524   8.4873  11.9477  15.4853  17.2584  19.0985  20.7856

     occupation numbers 
     1.0000   1.0000   1.0000   1.0000   1.0000   1.0000   1.0000   1.0000
     1.0000   1.0000   1.0000   1.0000   1.0000   1.0000   1.0000   1.0000
     1.0000   1.0000   1.0000   1.0000   1.0000   1.0000   1.0000   1.0000
     1.0001   1.0002   0.0000   0.0000   0.0000   0.0000   0.0000

          k = 0.0833 0.2406 0.1550 (  5410 PWs)   bands (ev):

  -114.5443-114.5442 -68.7465 -68.7448 -68.7426 -68.7423 -68.7420 -68.7416
    -8.8850  -8.4692   2.8999   3.0379   3.3041   3.3403   3.4796   3.5183
     4.3349   4.3895   4.5455   4.6049   5.5688   6.8987   7.1247   7.6509
     8.3209   8.3762  12.2924  14.9246  17.6107  19.1670  20.7081

     occupation numbers 
     1.0000   1.0000   1.0000   1.0000   1.0000   1.0000   1.0000   1.0000
     1.0000   1.0000   1.0000   1.0000   1.0000   1.0000   1.0000   1.0000
     1.0000   1.0000   1.0000   1.0000   1.0000   1.0000   1.0000   1.0000
     1.0000   1.0000   0.0000   0.0000   0.0000   0.0000   0.0000

          k = 0.0833 0.2406 0.2325 (  5397 PWs)   bands (ev):

  -114.5443-114.5442 -68.7462 -68.7452 -68.7425 -68.7423 -68.7419 -68.7417
    -8.7907  -8.5656   2.8497   2.9031   3.3216   3.3420   3.4316   3.4696
     4.4067   4.4287   4.5129   4.5491   6.0568   6.7561   7.3101   7.7933
     8.0538   8.2044  12.8351  14.2313  18.0791  19.0716  20.4569

     occupation numbers 
     1.0000   1.0000   1.0000   1.0000   1.0000   1.0000   1.0000   1.0000
     1.0000   1.0000   1.0000   1.0000   1.0000   1.0000   1.0000   1.0000
     1.0000   1.0000   1.0000   1.0000   1.0000   1.0000   1.0000   1.0000
     1.0000   1.0000   0.0000   0.0000   0.0000   0.0000   0.0000

          k = 0.0833 0.2406-0.3100 (  5394 PWs)   bands (ev):

  -114.5442-114.5442 -68.7457 -68.7457 -68.7424 -68.7424 -68.7418 -68.7418
    -8.6785  -8.6785   2.8403   2.8403   3.3402   3.3402   3.4293   3.4293
     4.4702   4.4702   4.4834   4.4834   6.4579   6.4579   7.6645   7.6645
     8.0069   8.0069  13.5079  13.5079  18.6247  18.6247  20.5112

     occupation numbers 
     1.0000   1.0000   1.0000   1.0000   1.0000   1.0000   1.0000   1.0000
     1.0000   1.0000   1.0000   1.0000   1.0000   1.0000   1.0000   1.0000
     1.0000   1.0000   1.0000   1.0000   1.0000   1.0000   1.0000   1.0000
     1.0000   1.0000   0.0000   0.0000   0.0000   0.0000   0.0000

          k = 0.0833 0.3368 0.0000 (  5406 PWs)   bands (ev):

  -114.5443-114.5442 -68.7466 -68.7445 -68.7432 -68.7428 -68.7423 -68.7417
    -8.8008  -8.3281   2.9036   3.2229   3.3401   3.5005   3.7188   3.8443
     4.2269   4.3838   4.5844   4.7357   4.9692   6.0459   6.7603   7.1040
     8.2052   8.2881  12.8334  16.3596  17.1072  18.0884  20.1307

     occupation numbers 
     1.0000   1.0000   1.0000   1.0000   1.0000   1.0000   1.0000   1.0000
     1.0000   1.0000   1.0000   1.0000   1.0000   1.0000   1.0000   1.0000
     1.0000   1.0000   1.0000   1.0000   1.0000   1.0000   1.0000   1.0000
     1.0000   1.0000   0.0000   0.0000   0.0000   0.0000   0.0000

          k = 0.0833 0.3368 0.0775 (  5402 PWs)   bands (ev):

  -114.5443-114.5442 -68.7465 -68.7446 -68.7432 -68.7428 -68.7423 -68.7417
    -8.7826  -8.3457   2.8842   3.1718   3.3462   3.4859   3.6998   3.7426
     4.2566   4.3993   4.5767   4.7001   5.1824   6.1105   6.7365   7.1330
     8.2005   8.2486  12.8965  16.0515  17.2832  18.1311  20.1587

     occupation numbers 
     1.0000   1.0000   1.0000   1.0000   1.0000   1.0000   1.0000   1.0000
     1.0000   1.0000   1.0000   1.0000   1.0000   1.0000   1.0000   1.0000
     1.0000   1.0000   1.0000   1.0000   1.0000   1.0000   1.0000   1.0000
     1.0000   1.0000   0.0000   0.0000   0.0000   0.0000   0.0000

          k = 0.0833 0.3368 0.1550 (  5398 PWs)   bands (ev):

  -114.5443-114.5442 -68.7464 -68.7449 -68.7431 -68.7428 -68.7422 -68.7418
    -8.7307  -8.3960   2.8371   3.0313   3.3687   3.4606   3.6094   3.6553
     4.3253   4.4252   4.5556   4.6477   5.5502   6.2618   6.7304   7.2485
     8.0936   8.1642  13.1106  15.4433  17.5662  18.2280  20.1012

     occupation numbers 
     1.0000   1.0000   1.0000   1.0000   1.0000   1.0000   1.0000   1.0000
     1.0000   1.0000   1.0000   1.0000   1.0000   1.0000   1.0000   1.0000
     1.0000   1.0000   1.0000   1.0000   1.0000   1.0000   1.0000   1.0000
     1.0000   1.0000   0.0000   0.0000   0.0000   0.0000   0.0000

          k = 0.0833 0.3368 0.2325 (  5393 PWs)   bands (ev):

  -114.5442-114.5442 -68.7461 -68.7453 -68.7429 -68.7428 -68.7421 -68.7419
    -8.6533  -8.4720   2.7958   2.8843   3.4033   3.4509   3.5408   3.5928
     4.4107   4.4554   4.5261   4.5816   5.8472   6.2410   7.0274   7.4413
     7.8793   7.9640  13.5105  14.7531  17.8593  18.2679  20.0345

     occupation numbers 
     1.0000   1.0000   1.0000   1.0000   1.0000   1.0000   1.0000   1.0000
     1.0000   1.0000   1.0000   1.0000   1.0000   1.0000   1.0000   1.0000
     1.0000   1.0000   1.0000   1.0000   1.0000   1.0000   1.0000   1.0000
     1.0000   1.0000   0.0000   0.0000   0.0000   0.0000   0.0000

          k = 0.0833 0.3368-0.3100 (  5388 PWs)   bands (ev):

  -114.5442-114.5442 -68.7457 -68.7457 -68.7428 -68.7428 -68.7420 -68.7420
    -8.5624  -8.5624   2.8025   2.8025   3.4367   3.4367   3.5400   3.5400
     4.4819   4.4819   4.5089   4.5089   6.0706   6.0706   7.4781   7.4781
     7.7162   7.7162  14.0805  14.0805  18.1273  18.1273  20.2369

     occupation numbers 
     1.0000   1.0000   1.0000   1.0000   1.0000   1.0000   1.0000   1.0000
     1.0000   1.0000   1.0000   1.0000   1.0000   1.0000   1.0000   1.0000
     1.0000   1.0000   1.0000   1.0000   1.0000   1.0000   1.0000   1.0000
     1.0000   1.0000   0.0000   0.0000   0.0000   0.0000   0.0000

          k = 0.0833 0.4330 0.0000 (  5408 PWs)   bands (ev):

  -114.5442-114.5442 -68.7463 -68.7448 -68.7436 -68.7433 -68.7425 -68.7418
    -8.6358  -8.2956   2.9061   3.2152   3.3803   3.6369   3.8579   3.9152
     4.2993   4.4305   4.5985   4.8017   5.0025   5.5834   6.3476   6.6847
     7.8657   8.0789  13.8384  16.5403  16.8232  17.5600  19.7753

     occupation numbers 
     1.0000   1.0000   1.0000   1.0000   1.0000   1.0000   1.0000   1.0000
     1.0000   1.0000   1.0000   1.0000   1.0000   1.0000   1.0000   1.0000
     1.0000   1.0000   1.0000   1.0000   1.0000   1.0000   1.0000   1.0000
     1.0000   1.0000   0.0000   0.0000   0.0000   0.0000   0.0000

          k = 0.0833 0.4330 0.0775 (  5403 PWs)   bands (ev):

  -114.5442-114.5442 -68.7462 -68.7449 -68.7436 -68.7432 -68.7425 -68.7418
    -8.6220  -8.3075   2.8839   3.1592   3.3917   3.6201   3.8278   3.8495
     4.3099   4.4528   4.5913   4.7661   5.1011   5.6800   6.3625   6.7461
     7.8928   8.0345  13.8450  16.2007  17.0754  17.5829  19.7313

     occupation numbers 
     1.0000   1.0000   1.0000   1.0000   1.0000   1.0000   1.0000   1.0000
     1.0000   1.0000   1.0000   1.0000   1.0000   1.0000   1.0000   1.0000
     1.0000   1.0000   1.0000   1.0000   1.0000   1.0000   1.0000   1.0000
     1.0000   1.0000   0.0000   0.0000   0.0000   0.0000   0.0000

          k = 0.0833 0.4330 0.1550 (  5403 PWs)   bands (ev):

  -114.5442-114.5442 -68.7462 -68.7451 -68.7435 -68.7431 -68.7424 -68.7419
    -8.5830  -8.3421   2.8310   3.0181   3.4266   3.5895   3.7272   3.7765
     4.3657   4.4782   4.5740   4.7032   5.2628   5.7814   6.5596   6.9179
     7.8475   7.9633  13.9120  15.6715  17.3502  17.6453  19.6408

     occupation numbers 
     1.0000   1.0000   1.0000   1.0000   1.0000   1.0000   1.0000   1.0000
     1.0000   1.0000   1.0000   1.0000   1.0000   1.0000   1.0000   1.0000
     1.0000   1.0000   1.0000   1.0000   1.0000   1.0000   1.0000   1.0000
     1.0000   1.0000   0.0000   0.0000   0.0000   0.0000   0.0000

          k = 0.0833 0.4330 0.2325 (  5411 PWs)   bands (ev):

  -114.5442-114.5442 -68.7460 -68.7455 -68.7433 -68.7431 -68.7423 -68.7420
    -8.5257  -8.3951   2.7853   2.8733   3.4824   3.5719   3.6547   3.6966
     4.4425   4.4974   4.5559   4.6320   5.4208   5.7111   6.9758   7.1803
     7.6418   7.8469  14.1315  15.0897  17.5440  17.6991  19.6940

     occupation numbers 
     1.0000   1.0000   1.0000   1.0000   1.0000   1.0000   1.0000   1.0000
     1.0000   1.0000   1.0000   1.0000   1.0000   1.0000   1.0000   1.0000
     1.0000   1.0000   1.0000   1.0000   1.0000   1.0000   1.0000   1.0000
     1.0000   1.0000   0.0000   0.0000   0.0000   0.0000   0.0000

          k = 0.0833 0.4330-0.3100 (  5404 PWs)   bands (ev):

  -114.5442-114.5442 -68.7458 -68.7458 -68.7432 -68.7432 -68.7422 -68.7422
    -8.4594  -8.4594   2.7911   2.7911   3.5441   3.5441   3.6394   3.6394
     4.4990   4.4990   4.5666   4.5666   5.5739   5.5739   7.3271   7.3271
     7.5722   7.5722  14.5426  14.5426  17.6647  17.6647  20.0351

     occupation numbers 
     1.0000   1.0000   1.0000   1.0000   1.0000   1.0000   1.0000   1.0000
     1.0000   1.0000   1.0000   1.0000   1.0000   1.0000   1.0000   1.0000
     1.0000   1.0000   1.0000   1.0000   1.0000   1.0000   1.0000   1.0000
     1.0000   1.0000   0.0000   0.0000   0.0000   0.0000   0.0000

          k = 0.0833 0.5292 0.0000 (  5400 PWs)   bands (ev):

  -114.5442-114.5442 -68.7460 -68.7450 -68.7439 -68.7435 -68.7426 -68.7419
    -8.5224  -8.2929   2.9545   3.2055   3.4020   3.7458   3.8495   3.9697
     4.3668   4.4778   4.6129   4.7202   5.0759   5.4355   6.0449   6.5319
     7.5808   7.9549  14.7061  16.1373  16.5192  17.4731  19.5514

     occupation numbers 
     1.0000   1.0000   1.0000   1.0000   1.0000   1.0000   1.0000   1.0000
     1.0000   1.0000   1.0000   1.0000   1.0000   1.0000   1.0000   1.0000
     1.0000   1.0000   1.0000   1.0000   1.0000   1.0000   1.0000   1.0000
     1.0000   1.0000   0.0000   0.0000   0.0000   0.0000   0.0000

          k = 0.0833 0.5292 0.0775 (  5405 PWs)   bands (ev):

  -114.5442-114.5442 -68.7460 -68.7451 -68.7438 -68.7435 -68.7426 -68.7419
    -8.5124  -8.3003   2.9288   3.1419   3.4141   3.7283   3.8278   3.9353
     4.3968   4.4868   4.6078   4.7223   5.0567   5.4296   6.1830   6.6089
     7.6297   7.9077  14.6310  15.9722  16.6902  17.5020  19.4646

     occupation numbers 
     1.0000   1.0000   1.0000   1.0000   1.0000   1.0000   1.0000   1.0000
     1.0000   1.0000   1.0000   1.0000   1.0000   1.0000   1.0000   1.0000
     1.0000   1.0000   1.0000   1.0000   1.0000   1.0000   1.0000   1.0000
     1.0000   1.0000   0.0000   0.0000   0.0000   0.0000   0.0000

          k = 0.0833 0.5292 0.1550 (  5409 PWs)   bands (ev):

  -114.5442-114.5442 -68.7460 -68.7453 -68.7437 -68.7434 -68.7425 -68.7420
    -8.4846  -8.3220   2.8656   2.9976   3.4526   3.6983   3.7833   3.8528
     4.4535   4.5040   4.6018   4.7159   5.0566   5.3736   6.5183   6.8390
     7.6610   7.8183  14.5184  15.6400  16.9663  17.5485  19.3497

     occupation numbers 
     1.0000   1.0000   1.0000   1.0000   1.0000   1.0000   1.0000   1.0000
     1.0000   1.0000   1.0000   1.0000   1.0000   1.0000   1.0000   1.0000
     1.0000   1.0000   1.0000   1.0000   1.0000   1.0000   1.0000   1.0000
     1.0000   1.0000   0.0000   0.0000   0.0000   0.0000   0.0000

          k = 0.0833 0.5292 0.2325 (  5407 PWs)   bands (ev):

  -114.5442-114.5442 -68.7460 -68.7456 -68.7435 -68.7433 -68.7424 -68.7421
    -8.4443  -8.3562   2.8055   2.8629   3.5184   3.6694   3.7441   3.7611
     4.4950   4.5159   4.6148   4.6896   5.1070   5.2836   6.8712   7.1995
     7.4752   7.7660  14.5509  15.2155  17.2122  17.5246  19.4639

     occupation numbers 
     1.0000   1.0000   1.0000   1.0000   1.0000   1.0000   1.0000   1.0000
     1.0000   1.0000   1.0000   1.0000   1.0000   1.0000   1.0000   1.0000
     1.0000   1.0000   1.0000   1.0000   1.0000   1.0000   1.0000   1.0000
     1.0000   1.0000   0.0000   0.0000   0.0000   0.0000   0.0000

          k = 0.0833 0.5292-0.3100 (  5402 PWs)   bands (ev):

  -114.5442-114.5442 -68.7458 -68.7458 -68.7434 -68.7434 -68.7422 -68.7422
    -8.3990  -8.3990   2.7956   2.7956   3.6031   3.6031   3.7261   3.7261
     4.5132   4.5132   4.6509   4.6509   5.1891   5.1891   7.1870   7.1870
     7.5631   7.5631  14.8053  14.8053  17.4025  17.4025  19.8834

     occupation numbers 
     1.0000   1.0000   1.0000   1.0000   1.0000   1.0000   1.0000   1.0000
     1.0000   1.0000   1.0000   1.0000   1.0000   1.0000   1.0000   1.0000
     1.0000   1.0000   1.0000   1.0000   1.0000   1.0000   1.0000   1.0000
     1.0000   1.0000   0.0000   0.0000   0.0000   0.0000   0.0000

          k = 0.1667 0.2887 0.0000 (  5418 PWs)   bands (ev):

  -114.5443-114.5442 -68.7466 -68.7445 -68.7430 -68.7428 -68.7422 -68.7417
    -8.8250  -8.3345   2.9666   3.1699   3.3810   3.4350   3.7058   3.8110
     4.2316   4.3645   4.5820   4.7433   4.9541   6.3445   6.5978   7.1784
     8.2349   8.2646  12.7393  16.3327  17.2338  18.3615  20.0609

     occupation numbers 
     1.0000   1.0000   1.0000   1.0000   1.0000   1.0000   1.0000   1.0000
     1.0000   1.0000   1.0000   1.0000   1.0000   1.0000   1.0000   1.0000
     1.0000   1.0000   1.0000   1.0000   1.0000   1.0000   1.0000   1.0000
     1.0000   1.0000   0.0000   0.0000   0.0000   0.0000   0.0000

          k = 0.1667 0.2887 0.0775 (  5412 PWs)   bands (ev):

  -114.5443-114.5442 -68.7466 -68.7446 -68.7430 -68.7428 -68.7422 -68.7418
    -8.8062  -8.3528   2.9442   3.1387   3.3748   3.4165   3.6887   3.7077
     4.2574   4.3878   4.5745   4.7014   5.1788   6.4173   6.5912   7.1713
     8.1872   8.2625  12.8139  16.0541  17.3687  18.3962  20.2060

     occupation numbers 
     1.0000   1.0000   1.0000   1.0000   1.0000   1.0000   1.0000   1.0000
     1.0000   1.0000   1.0000   1.0000   1.0000   1.0000   1.0000   1.0000
     1.0000   1.0000   1.0000   1.0000   1.0000   1.0000   1.0000   1.0000
     1.0000   1.0000   0.0000   0.0000   0.0000   0.0000   0.0000

          k = 0.1667 0.2887 0.1550 (  5394 PWs)   bands (ev):

  -114.5443-114.5442 -68.7464 -68.7449 -68.7429 -68.7427 -68.7422 -68.7418
    -8.7527  -8.4054   2.8891   3.0298   3.3670   3.3907   3.5850   3.6435
     4.3237   4.4200   4.5541   4.6474   5.5797   6.5294   6.6544   7.2177
     8.0523   8.1931  13.0557  15.4575  17.6322  18.4732  20.3860

     occupation numbers 
     1.0000   1.0000   1.0000   1.0000   1.0000   1.0000   1.0000   1.0000
     1.0000   1.0000   1.0000   1.0000   1.0000   1.0000   1.0000   1.0000
     1.0000   1.0000   1.0000   1.0000   1.0000   1.0000   1.0000   1.0000
     1.0000   1.0000   0.0000   0.0000   0.0000   0.0000   0.0000

          k = 0.1667 0.2887 0.2325 (  5388 PWs)   bands (ev):

  -114.5442-114.5442 -68.7461 -68.7453 -68.7428 -68.7427 -68.7421 -68.7419
    -8.6726  -8.4845   2.8367   2.8997   3.3707   3.3884   3.5319   3.5858
     4.4085   4.4523   4.5256   4.5815   5.9250   6.3835   7.0601   7.3686
     7.8554   7.9679  13.4852  14.7619  17.9577  18.4880  20.1827

     occupation numbers 
     1.0000   1.0000   1.0000   1.0000   1.0000   1.0000   1.0000   1.0000
     1.0000   1.0000   1.0000   1.0000   1.0000   1.0000   1.0000   1.0000
     1.0000   1.0000   1.0000   1.0000   1.0000   1.0000   1.0000   1.0000
     1.0000   1.0000   0.0000   0.0000   0.0000   0.0000   0.0000

          k = 0.1667 0.2887-0.3100 (  5376 PWs)   bands (ev):

  -114.5442-114.5442 -68.7457 -68.7457 -68.7427 -68.7427 -68.7420 -68.7420
    -8.5784  -8.5784   2.8308   2.8308   3.3832   3.3832   3.5383   3.5383
     4.4777   4.4777   4.5107   4.5107   6.1816   6.1816   7.4781   7.4781
     7.6821   7.6821  14.0764  14.0764  18.2943  18.2943  20.0797

     occupation numbers 
     1.0000   1.0000   1.0000   1.0000   1.0000   1.0000   1.0000   1.0000
     1.0000   1.0000   1.0000   1.0000   1.0000   1.0000   1.0000   1.0000
     1.0000   1.0000   1.0000   1.0000   1.0000   1.0000   1.0000   1.0000
     1.0000   1.0000   0.0000   0.0000   0.0000   0.0000   0.0000

          k = 0.1667 0.3849 0.0000 (  5397 PWs)   bands (ev):

  -114.5442-114.5442 -68.7463 -68.7447 -68.7434 -68.7432 -68.7425 -68.7419
    -8.6653  -8.2983   3.0029   3.1753   3.4162   3.5531   3.8456   3.9378
     4.2284   4.3898   4.5982   4.8019   5.0385   5.8871   6.2714   6.5927
     7.9189   7.9810  13.7562  16.5571  17.4532  17.7121  19.8535

     occupation numbers 
     1.0000   1.0000   1.0000   1.0000   1.0000   1.0000   1.0000   1.0000
     1.0000   1.0000   1.0000   1.0000   1.0000   1.0000   1.0000   1.0000
     1.0000   1.0000   1.0000   1.0000   1.0000   1.0000   1.0000   1.0000
     1.0000   1.0000   0.0000   0.0000   0.0000   0.0000   0.0000

          k = 0.1667 0.3849 0.0775 (  5398 PWs)   bands (ev):

  -114.5442-114.5442 -68.7463 -68.7448 -68.7433 -68.7431 -68.7425 -68.7420
    -8.6506  -8.3114   2.9774   3.1472   3.4103   3.5350   3.8185   3.8255
     4.2549   4.4314   4.5919   4.7713   5.1741   5.9663   6.3160   6.6046
     7.8730   7.9986  13.7914  16.3484  17.5011  17.7528  19.8952

     occupation numbers 
     1.0000   1.0000   1.0000   1.0000   1.0000   1.0000   1.0000   1.0000
     1.0000   1.0000   1.0000   1.0000   1.0000   1.0000   1.0000   1.0000
     1.0000   1.0000   1.0000   1.0000   1.0000   1.0000   1.0000   1.0000
     1.0000   1.0000   0.0000   0.0000   0.0000   0.0000   0.0000

          k = 0.1667 0.3849 0.1550 (  5394 PWs)   bands (ev):

  -114.5442-114.5442 -68.7462 -68.7451 -68.7432 -68.7431 -68.7424 -68.7420
    -8.6091  -8.3491   2.9151   3.0510   3.4085   3.4965   3.6830   3.7621
     4.3284   4.4701   4.5774   4.7120   5.4030   6.0290   6.5508   6.7147
     7.7226   8.0066  13.9260  15.8540  17.6199  17.8491  19.7555

     occupation numbers 
     1.0000   1.0000   1.0000   1.0000   1.0000   1.0000   1.0000   1.0000
     1.0000   1.0000   1.0000   1.0000   1.0000   1.0000   1.0000   1.0000
     1.0000   1.0000   1.0000   1.0000   1.0000   1.0000   1.0000   1.0000
     1.0000   1.0000   0.0000   0.0000   0.0000   0.0000   0.0000

          k = 0.1667 0.3849 0.2325 (  5408 PWs)   bands (ev):

  -114.5442-114.5442 -68.7460 -68.7454 -68.7431 -68.7430 -68.7423 -68.7421
    -8.5476  -8.4067   2.8583   2.9264   3.4280   3.4725   3.6248   3.6871
     4.4182   4.4905   4.5637   4.6389   5.6020   5.9306   6.8891   7.0332
     7.5145   7.8817  14.2155  15.2549  17.7768  17.9341  19.5580

     occupation numbers 
[...]
     4.2244   4.3601   4.6197   4.8602   4.9583   5.6846   6.0274   6.1939
     7.5781   7.6507  14.7930  16.5736  17.4286  17.5117  19.9573

     occupation numbers 
     1.0000   1.0000   1.0000   1.0000   1.0000   1.0000   1.0000   1.0000
     1.0000   1.0000   1.0000   1.0000   1.0000   1.0000   1.0000   1.0000
     1.0000   1.0000   1.0000   1.0000   1.0000   1.0000   1.0000   1.0000
     1.0000   1.0000   0.0000   0.0000   0.0000   0.0000   0.0000

          k = 0.2500 0.4330 0.0775 (  5397 PWs)   bands (ev):

  -114.5442-114.5442 -68.7460 -68.7451 -68.7434 -68.7434 -68.7427 -68.7423
    -8.5201  -8.2966   3.1166   3.1716   3.5164   3.5513   3.9198   3.9282
     4.2582   4.4320   4.6173   4.8643   5.0084   5.7182   6.0247   6.3361
     7.5165   7.7038  14.8071  16.4721  17.4528  17.5494  19.6086

     occupation numbers 
     1.0000   1.0000   1.0000   1.0000   1.0000   1.0000   1.0000   1.0000
     1.0000   1.0000   1.0000   1.0000   1.0000   1.0000   1.0000   1.0000
     1.0000   1.0000   1.0000   1.0000   1.0000   1.0000   1.0000   1.0000
     1.0000   1.0000   0.0000   0.0000   0.0000   0.0000   0.0000

          k = 0.2500 0.4330 0.1550 (  5394 PWs)   bands (ev):

  -114.5442-114.5442 -68.7460 -68.7453 -68.7433 -68.7433 -68.7427 -68.7423
    -8.4910  -8.3197   3.0688   3.0831   3.4610   3.5120   3.7956   3.8423
     4.3355   4.4805   4.6191   4.8180   5.1594   5.7100   6.1272   6.6863
     7.3554   7.7944  14.8749  16.1920  17.5223  17.6419  19.1088

     occupation numbers 
     1.0000   1.0000   1.0000   1.0000   1.0000   1.0000   1.0000   1.0000
     1.0000   1.0000   1.0000   1.0000   1.0000   1.0000   1.0000   1.0000
     1.0000   1.0000   1.0000   1.0000   1.0000   1.0000   1.0000   1.0000
     1.0000   1.0000   0.0000   0.0000   0.0000   0.0000   0.0000

          k = 0.2500 0.4330 0.2325 (  5408 PWs)   bands (ev):

  -114.5442-114.5442 -68.7459 -68.7456 -68.7432 -68.7432 -68.7426 -68.7424
    -8.4488  -8.3560   2.9797   3.0055   3.4282   3.4950   3.7383   3.7637
     4.4142   4.4871   4.6390   4.7503   5.3214   5.6064   6.3780   6.9152
     7.3065   7.7887  15.0540  15.7929  17.6261  17.7339  18.7736

     occupation numbers 
     1.0000   1.0000   1.0000   1.0000   1.0000   1.0000   1.0000   1.0000
     1.0000   1.0000   1.0000   1.0000   1.0000   1.0000   1.0000   1.0000
     1.0000   1.0000   1.0000   1.0000   1.0000   1.0000   1.0000   1.0000
     1.0000   1.0000   0.0000   0.0000   0.0000   0.0000   0.0000

          k = 0.2500 0.4330-0.3100 (  5400 PWs)   bands (ev):

  -114.5442-114.5442 -68.7458 -68.7458 -68.7432 -68.7432 -68.7425 -68.7425
    -8.4012  -8.4012   2.9545   2.9545   3.4586   3.4586   3.7264   3.7264
     4.4663   4.4663   4.6850   4.6850   5.4710   5.4710   6.6794   6.6794
     7.6027   7.6027  15.3761  15.3761  17.7268  17.7268  18.7717

     occupation numbers 
     1.0000   1.0000   1.0000   1.0000   1.0000   1.0000   1.0000   1.0000
     1.0000   1.0000   1.0000   1.0000   1.0000   1.0000   1.0000   1.0000
     1.0000   1.0000   1.0000   1.0000   1.0000   1.0000   1.0000   1.0000
     1.0000   1.0000   0.0000   0.0000   0.0000   0.0000   0.0000

          k = 0.2500 0.5292 0.0000 (  5386 PWs)   bands (ev):

  -114.5442-114.5442 -68.7457 -68.7452 -68.7436 -68.7433 -68.7430 -68.7424
    -8.4284  -8.3065   3.1054   3.4082   3.5976   3.6569   4.0046   4.1055
     4.3203   4.3401   4.5918   4.6087   5.1626   5.3486   5.5675   6.5722
     7.2359   7.4115  15.7655  16.5640  16.9168  17.3520  19.6551

     occupation numbers 
     1.0000   1.0000   1.0000   1.0000   1.0000   1.0000   1.0000   1.0000
     1.0000   1.0000   1.0000   1.0000   1.0000   1.0000   1.0000   1.0000
     1.0000   1.0000   1.0000   1.0000   1.0000   1.0000   1.0000   1.0000
     1.0000   1.0000   0.0000   0.0000   0.0000   0.0000   0.0000

          k = 0.2500 0.5292 0.0775 (  5387 PWs)   bands (ev):

  -114.5442-114.5442 -68.7458 -68.7453 -68.7436 -68.7433 -68.7430 -68.7424
    -8.4224  -8.3097   3.1093   3.3599   3.5068   3.6668   3.9652   4.0275
     4.3103   4.4130   4.6117   4.6631   5.1391   5.4278   5.5577   6.6921
     7.2231   7.4360  15.7506  16.5412  16.9597  17.3941  19.2796

     occupation numbers 
     1.0000   1.0000   1.0000   1.0000   1.0000   1.0000   1.0000   1.0000
     1.0000   1.0000   1.0000   1.0000   1.0000   1.0000   1.0000   1.0000
     1.0000   1.0000   1.0000   1.0000   1.0000   1.0000   1.0000   1.0000
     1.0000   1.0000   0.0000   0.0000   0.0000   0.0000   0.0000

          k = 0.2500 0.5292 0.1550 (  5390 PWs)   bands (ev):

  -114.5442-114.5442 -68.7458 -68.7455 -68.7434 -68.7432 -68.7429 -68.7425
    -8.4057  -8.3193   3.1027   3.2418   3.3805   3.6273   3.8966   3.9242
     4.3516   4.4357   4.6633   4.7819   5.1085   5.4170   5.7333   6.9235
     7.1296   7.5725  15.7430  16.4492  17.0734  17.5192  18.5903

     occupation numbers 
     1.0000   1.0000   1.0000   1.0000   1.0000   1.0000   1.0000   1.0000
     1.0000   1.0000   1.0000   1.0000   1.0000   1.0000   1.0000   1.0000
     1.0000   1.0000   1.0000   1.0000   1.0000   1.0000   1.0000   1.0000
     1.0000   1.0000   0.0000   0.0000   0.0000   0.0000   0.0000

          k = 0.2500 0.5292 0.2325 (  5402 PWs)   bands (ev):

  -114.5442-114.5442 -68.7459 -68.7457 -68.7433 -68.7431 -68.7428 -68.7426
    -8.3824  -8.3355   3.0598   3.1123   3.3643   3.5377   3.8542   3.8680
     4.3866   4.4292   4.7376   4.8381   5.1314   5.3215   6.0472   6.7279
     7.3858   7.6781  15.8164  16.2587  17.2367  17.6568  18.0787

     occupation numbers 
     1.0000   1.0000   1.0000   1.0000   1.0000   1.0000   1.0000   1.0000
     1.0000   1.0000   1.0000   1.0000   1.0000   1.0000   1.0000   1.0000
     1.0000   1.0000   1.0000   1.0000   1.0000   1.0000   1.0000   1.0000
     1.0000   1.0000   0.0000   0.0000   0.0000   0.0000   0.0000

          k = 0.2500 0.5292-0.3100 (  5402 PWs)   bands (ev):

  -114.5442-114.5442 -68.7458 -68.7458 -68.7432 -68.7432 -68.7427 -68.7427
    -8.3575  -8.3575   3.0452   3.0452   3.4358   3.4358   3.8468   3.8468
     4.4117   4.4117   4.8065   4.8065   5.2181   5.2181   6.3945   6.3945
     7.6220   7.6220  16.0088  16.0088  17.4612  17.4612  18.2218

     occupation numbers 
     1.0000   1.0000   1.0000   1.0000   1.0000   1.0000   1.0000   1.0000
     1.0000   1.0000   1.0000   1.0000   1.0000   1.0000   1.0000   1.0000
     1.0000   1.0000   1.0000   1.0000   1.0000   1.0000   1.0000   1.0000
     1.0000   1.0000   0.0000   0.0000   0.0000   0.0000   0.0000

          k = 0.3333 0.5774 0.0000 (  5388 PWs)   bands (ev):

  -114.5442-114.5442 -68.7455 -68.7455 -68.7435 -68.7433 -68.7433 -68.7426
    -8.3524  -8.3524   3.1161   3.5177   3.5177   3.8716   4.1513   4.1513
     4.2687   4.4060   4.4340   4.4340   5.1314   5.3516   5.3516   6.9642
     6.9642   7.1547  16.5756  16.6310  16.6310  17.0734  19.6975

     occupation numbers 
     1.0000   1.0000   1.0000   1.0000   1.0000   1.0000   1.0000   1.0000
     1.0000   1.0000   1.0000   1.0000   1.0000   1.0000   1.0000   1.0000
     1.0000   1.0000   1.0000   1.0000   1.0000   1.0000   1.0000   1.0000
     1.0000   1.0000   0.0000   0.0000   0.0000   0.0000   0.0000

          k = 0.3333 0.5774 0.0775 (  5391 PWs)   bands (ev):

  -114.5442-114.5442 -68.7455 -68.7455 -68.7434 -68.7432 -68.7432 -68.7426
    -8.3508  -8.3508   3.1320   3.4601   3.4601   3.8067   4.0695   4.0695
     4.2804   4.4018   4.5438   4.5438   5.2302   5.3246   5.3246   7.0665
     7.0665   7.0789  16.6129  16.6508  16.6508  17.0658  19.3489

     occupation numbers 
     1.0000   1.0000   1.0000   1.0000   1.0000   1.0000   1.0000   1.0000
     1.0000   1.0000   1.0000   1.0000   1.0000   1.0000   1.0000   1.0000
     1.0000   1.0000   1.0000   1.0000   1.0000   1.0000   1.0000   1.0000
     1.0000   1.0000   0.0000   0.0000   0.0000   0.0000   0.0000

          k = 0.3333 0.5774 0.1550 (  5391 PWs)   bands (ev):

  -114.5442-114.5442 -68.7456 -68.7456 -68.7433 -68.7431 -68.7431 -68.7427
    -8.3471  -8.3471   3.1796   3.3224   3.3224   3.6640   3.9832   3.9832
     4.3023   4.3899   4.7043   4.7043   5.2627   5.2627   5.4832   6.8666
     7.3055   7.3055  16.7073  16.7152  16.7152  17.0412  18.6630

     occupation numbers 
     1.0000   1.0000   1.0000   1.0000   1.0000   1.0000   1.0000   1.0000
     1.0000   1.0000   1.0000   1.0000   1.0000   1.0000   1.0000   1.0000
     1.0000   1.0000   1.0000   1.0000   1.0000   1.0000   1.0000   1.0000
     1.0000   1.0000   0.0000   0.0000   0.0000   0.0000   0.0000

          k = 0.3333 0.5774 0.2325 (  5421 PWs)   bands (ev):

  -114.5442-114.5442 -68.7457 -68.7457 -68.7432 -68.7430 -68.7430 -68.7429
    -8.3434  -8.3434   3.1934   3.1934   3.2592   3.5085   3.9417   3.9417
     4.3258   4.3718   4.8267   4.8267   5.1976   5.1976   5.8210   6.5558
     7.5377   7.5377  16.8207  16.8286  16.8286  16.9947  18.0460

     occupation numbers 
     1.0000   1.0000   1.0000   1.0000   1.0000   1.0000   1.0000   1.0000
     1.0000   1.0000   1.0000   1.0000   1.0000   1.0000   1.0000   1.0000
     1.0000   1.0000   1.0000   1.0000   1.0000   1.0000   1.0000   1.0000
     1.0000   1.0000   0.0000   0.0000   0.0000   0.0000   0.0000

          k = 0.3333 0.5774-0.3100 (  5406 PWs)   bands (ev):

  -114.5442-114.5442 -68.7458 -68.7458 -68.7430 -68.7430 -68.7429 -68.7429
    -8.3418  -8.3418   3.1428   3.1428   3.3700   3.3700   3.9298   3.9298
     4.3496   4.3496   4.8771   4.8771   5.1656   5.1656   6.1927   6.1927
     7.6328   7.6328  16.9144  16.9144  16.9211  16.9211  17.7711

     occupation numbers 
     1.0000   1.0000   1.0000   1.0000   1.0000   1.0000   1.0000   1.0000
     1.0000   1.0000   1.0000   1.0000   1.0000   1.0000   1.0000   1.0000
     1.0000   1.0000   1.0000   1.0000   1.0000   1.0000   1.0000   1.0000
     1.0000   1.0000   0.0000   0.0000   0.0000   0.0000   0.0000

     the Fermi energy is     9.8623 ev

     WARNING: integrated charge=    52.00278716, expected=    52.00000000

!    total energy              =   -1006.57328133 Ry
     estimated scf accuracy    <          2.1E-09 Ry
     smearing contrib. (-TS)   =       0.00004999 Ry
     internal energy E=F+TS    =   -1006.57333131 Ry

     The total energy is F=E-TS. E is the sum of the following terms:
     one-electron contribution =    -804.01492183 Ry
     hartree contribution      =     424.17332555 Ry
     xc contribution           =     -99.53327406 Ry
     ewald contribution        =    -508.17051050 Ry
     one-center paw contrib.   =     -19.02795048 Ry
      -> PAW hartree energy AE =      53.22802967 Ry
      -> PAW hartree energy PS =     -52.97741879 Ry
      -> PAW xc energy AE      =     -33.48198542 Ry
      -> PAW xc energy PS      =      14.20342405 Ry
      -> total E_H with PAW    =     424.42393644 Ry
      -> total E_XC with PAW   =    -118.81183543 Ry

     convergence has been achieved in  10 iterations

     Forces acting on atoms (cartesian axes, Ry/au):

     atom    1 type  2   force =     0.00000000    0.00000000   -0.00009259
     atom    2 type  2   force =     0.00000000    0.00000000   -0.00009259
     atom    3 type  1   force =    -0.00000000   -0.00000000    0.00009259
     atom    4 type  1   force =     0.00000000    0.00000000    0.00009259
     The non-local contrib.  to forces
     atom    1 type  2   force =     0.00000000    0.00000000   -0.01249457
     atom    2 type  2   force =     0.00000000    0.00000000   -0.01249457
     atom    3 type  1   force =    -0.00000000   -0.00000000    0.00416702
     atom    4 type  1   force =     0.00000000    0.00000000    0.00416702
     The ionic contribution  to forces
     atom    1 type  2   force =    -0.00000062    0.00000036    0.08378819
     atom    2 type  2   force =     0.00000062   -0.00000036    0.08378819
     atom    3 type  1   force =    -0.00000053    0.00000031   -0.08378819
     atom    4 type  1   force =     0.00000053   -0.00000031   -0.08378819
     The local contribution  to forces
     atom    1 type  2   force =    -0.00000967    0.00000558   -0.07137951
     atom    2 type  2   force =     0.00002902   -0.00001675   -0.07138012
     atom    3 type  1   force =    -0.00000057    0.00000033    0.07977665
     atom    4 type  1   force =     0.00000170   -0.00000098    0.07977765
     The core correction contribution to forces
     atom    1 type  2   force =     0.00000000    0.00000000    0.00000000
     atom    2 type  2   force =     0.00000000    0.00000000    0.00000000
     atom    3 type  1   force =    -0.00000000    0.00000000   -0.00006251
     atom    4 type  1   force =     0.00000000   -0.00000000   -0.00006251
     The Hubbard contrib.    to forces
     atom    1 type  2   force =     0.00000000    0.00000000    0.00000000
     atom    2 type  2   force =     0.00000000    0.00000000    0.00000000
     atom    3 type  1   force =     0.00000000    0.00000000    0.00000000
     atom    4 type  1   force =     0.00000000    0.00000000    0.00000000
     The SCF correction term to forces
     atom    1 type  2   force =    -0.00000000    0.00000000   -0.00000782
     atom    2 type  2   force =     0.00000000   -0.00000000   -0.00000782
     atom    3 type  1   force =    -0.00000000    0.00000000   -0.00000230
     atom    4 type  1   force =     0.00000000   -0.00000000   -0.00000230

     Total force =     0.000185     Total SCF correction =     0.000012


     Computing stress (Cartesian axis) and pressure

          total   stress  (Ry/bohr**3)                   (kbar)     P=       60.20
   0.00040781   0.00000000  -0.00000000           59.99        0.00       -0.00
   0.00000000   0.00040781  -0.00000000            0.00       59.99       -0.00
  -0.00000000  -0.00000000   0.00041202           -0.00       -0.00       60.61

     kinetic stress (kbar)  35036.50      0.00      0.00
                                0.00  35036.50      0.00
                                0.00      0.00  35065.53

     local   stress (kbar)  -5389.84     -0.00     -0.00
                               -0.00  -5389.84      0.00
                               -0.00      0.00  -9559.83

     nonloc. stress (kbar)   -715.45      0.00      0.00
                                0.00   -715.45      0.00
                                0.00      0.00   -728.32

     hartree stress (kbar)  64368.30     -0.00      0.00
                               -0.00  64368.30      0.00
                                0.00      0.00  66347.66

     exc-cor stress (kbar) -14218.58      0.00     -0.00
                                0.00 -14218.58      0.00
                               -0.00      0.00 -14218.70

     corecor stress (kbar)   -390.54     -0.00      0.00
                               -0.00   -390.54     -0.00
                                0.00     -0.00   -390.57

     ewald   stress (kbar) -78630.39      0.00      0.00
                                0.00 -78630.39      0.00
                                0.00      0.00 -76455.16

     hubbard stress (kbar)      0.00      0.00      0.00
                                0.00      0.00      0.00
                                0.00      0.00      0.00

     DFT-D   stress (kbar)      0.00      0.00      0.00
                                0.00      0.00      0.00
                                0.00      0.00      0.00

     XDM     stress (kbar)      0.00      0.00      0.00
                                0.00      0.00      0.00
                                0.00      0.00      0.00

     dft-nl  stress (kbar)      0.00      0.00      0.00
                                0.00      0.00      0.00
                                0.00      0.00      0.00

     TS-vdW  stress (kbar)      0.00      0.00      0.00
                                0.00      0.00      0.00
                                0.00      0.00      0.00

     MDB     stress (kbar)      0.00      0.00      0.00
                                0.00      0.00      0.00
                                0.00      0.00      0.00

     3D-RISM stress (kbar)      0.00      0.00      0.00
                                0.00      0.00      0.00
                                0.00      0.00      0.00


     Writing all to output data dir ./temp_hexag/aiida.save/ :
     XML data file, charge density, pseudopotentials, collected wavefunctions

     init_run     :   1919.96s CPU     86.67s WALL (       1 calls)
     electrons    :  17777.03s CPU    863.46s WALL (       1 calls)
     forces       :    147.05s CPU      7.48s WALL (       1 calls)
     stress       :    100.23s CPU      6.48s WALL (       1 calls)

     Called by init_run:
     wfcinit      :   1912.81s CPU     85.74s WALL (       1 calls)
     wfcinit:atom :     15.01s CPU      0.77s WALL (      95 calls)
     wfcinit:wfcr :   1871.55s CPU     83.35s WALL (      95 calls)
     potinit      :      2.81s CPU      0.18s WALL (       1 calls)
     hinit0       :      1.63s CPU      0.34s WALL (       1 calls)

     Called by electrons:
     c_bands      :  14575.64s CPU    719.83s WALL (      10 calls)
     sum_band     :   3146.49s CPU    138.50s WALL (      10 calls)
     v_of_rho     :     11.87s CPU      0.72s WALL (      11 calls)
     v_h          :      1.14s CPU      0.11s WALL (      11 calls)
     v_xc         :     12.03s CPU      0.72s WALL (      13 calls)
     newd         :     17.92s CPU      3.46s WALL (      11 calls)
     PAW_pot      :     22.80s CPU      0.96s WALL (      11 calls)
     mix_rho      :      3.76s CPU      0.21s WALL (      10 calls)

     Called by c_bands:
     init_us_2    :     77.32s CPU      6.29s WALL (    2185 calls)
     cegterg      :  14494.47s CPU    711.57s WALL (     950 calls)

     Called by sum_band:
     sum_band:wei :      0.16s CPU      0.02s WALL (      10 calls)
     sum_band:loo :   3137.52s CPU    134.89s WALL (      10 calls)
     sum_band:buf :      9.50s CPU      0.47s WALL (     950 calls)
     sum_band:ini :     43.89s CPU      2.25s WALL (     950 calls)
     sum_band:cal :    281.19s CPU     11.50s WALL (     950 calls)
     sum_band:bec :    119.43s CPU      6.47s WALL (     950 calls)
     addusdens    :      6.70s CPU      3.35s WALL (      10 calls)
                                        0.00s GPU  (      10 calls)
     addusd:skk   :      0.26s CPU      0.02s WALL (      20 calls)
                                        0.00s GPU  (      20 calls)

     Called by *egterg:
     cdiaghg      :     30.02s CPU      2.74s WALL (    3606 calls)
     cegterg:over :    220.07s CPU     25.56s WALL (    2656 calls)
     cegterg:upda :    274.03s CPU     29.76s WALL (    2656 calls)
     cegterg:last :    191.46s CPU     37.99s WALL (    1984 calls)
     h_psi        :  14705.74s CPU    637.99s WALL (    3701 calls)
     s_psi        :    527.95s CPU     30.48s WALL (    3701 calls)
     g_psi        :    116.38s CPU      5.71s WALL (    2656 calls)

     Called by h_psi:
     h_psi:calbec :    746.42s CPU     30.22s WALL (    3701 calls)
     vloc_psi     :  13522.41s CPU    576.95s WALL (    3701 calls)
     add_vuspsi   :    242.74s CPU     21.93s WALL (    3701 calls)

     General routines
     calbec       :   1144.38s CPU     47.19s WALL (    5126 calls)
     fft          :     10.86s CPU      0.65s WALL (     166 calls)
     ffts         :      0.40s CPU      0.03s WALL (      21 calls)
     fftw         :   3427.09s CPU    151.57s WALL (  179918 calls)
     interpolate  :      1.55s CPU      0.07s WALL (      11 calls)

     Parallel routines

     PAW routines
     PAW_pot      :     22.80s CPU      0.96s WALL (      11 calls)
     PAW_symme    :      0.20s CPU      0.00s WALL (      21 calls)

     PWSCF        :      5h33m CPU  16m 8.26s WALL


   This run was terminated on:  14:42:28  12Jun2024            

=------------------------------------------------------------------------------=
   JOB DONE.
=------------------------------------------------------------------------------=
