
     Program PWSCF v.7.3.1 starts on 12Jun2024 at  0:14: 2 

     This program is part of the open-source Quantum ESPRESSO suite
     for quantum simulation of materials; please cite
         "P. Giannozzi et al., J. Phys.:Condens. Matter 21 395502 (2009);
         "P. Giannozzi et al., J. Phys.:Condens. Matter 29 465901 (2017);
         "P. Giannozzi et al., J. Chem. Phys. 152 154105 (2020);
          URL http://www.quantum-espresso.org", 
     in publications or presentations arising from this work. More details at
     http://www.quantum-espresso.org/quote

     Parallel version (MPI & OpenMP), running on      24 processor cores
     Number of MPI processes:                 1
     Threads/MPI process:                    24

     MPI processes distributed on     1 nodes
     4672 MiB available memory on the printing compute node when the environment starts

     Waiting for input...
     Reading input from standard input

     Current dimensions of program PWSCF are:
     Max number of different atomic species (ntypx) = 10
     Max number of k-points (npk) =  40000
     Max angular momentum in pseudopotentials (lmaxx) =  4
     file O.pbe-n-kjpaw_psl.0.1.UPF: wavefunction(s)  2P renormalized
     Message from routine setup:
     using ibrav=0 with symmetry is DISCOURAGED, use correct ibrav instead

     Subspace diagonalization in iterative solution of the eigenvalue problem:
     a serial algorithm will be used


     G-vector sticks info
     --------------------
     sticks:   dense  smooth     PW     G-vecs:    dense   smooth      PW
     Sum         847     421    127                31551    11175    1949

     Using Slab Decomposition



     bravais-lattice index     =            0
     lattice parameter (alat)  =       5.5059  a.u.
     unit-cell volume          =     233.1720 (a.u.)^3
     number of atoms/cell      =            4
     number of atomic types    =            2
     number of electrons       =        52.00
     number of Kohn-Sham states=           31
     kinetic-energy cutoff     =      50.0000  Ry
     charge density cutoff     =     400.0000  Ry
     scf convergence threshold =      2.0E-08
     mixing beta               =       0.4000
     number of iterations used =            8  plain     mixing
     Exchange-correlation= SLA  PW   PBE  PBE
                           (   1   4   3   4   0   0   0)

     celldm(1)=   5.505936  celldm(2)=   0.000000  celldm(3)=   0.000000
     celldm(4)=   0.000000  celldm(5)=   0.000000  celldm(6)=   0.000000

     crystal axes: (cart. coord. in units of alat)
               a(1) = (   1.000000   0.000000   0.000000 )  
               a(2) = (  -0.500000   0.866025   0.000000 )  
               a(3) = (   0.000000   0.000000   1.613066 )  

     reciprocal axes: (cart. coord. in units 2 pi/alat)
               b(1) = (  1.000000  0.577350 -0.000000 )  
               b(2) = (  0.000000  1.154701  0.000000 )  
               b(3) = (  0.000000 -0.000000  0.619937 )  


     PseudoPot. # 1 for O  read from file:
     ../SSSP_1.3.0_PBE_efficiency/O.pbe-n-kjpaw_psl.0.1.UPF
     MD5 check sum: 0234752ac141de4415c5fc33072bef88
     Pseudo is Projector augmented-wave + core cor, Zval =  6.0
     Generated using "atomic" code by A. Dal Corso  v.5.0.99 svn rev. 10869
     Shape of augmentation charge: BESSEL
     Using radial grid of 1095 points,  4 beta functions with: 
                l(1) =   0
                l(2) =   0
                l(3) =   1
                l(4) =   1
     Q(r) pseudized with 0 coefficients 


     PseudoPot. # 2 for Zn read from file:
     ../SSSP_1.3.0_PBE_efficiency/Zn_pbe_v1.uspp.F.UPF
     MD5 check sum: df62231357ef9e81f77b2b3087fa5675
     Pseudo is Ultrasoft, Zval = 20.0
     Generated by new atomic code, or converted to UPF format
     Using radial grid of  943 points,  6 beta functions with: 
                l(1) =   0
                l(2) =   0
                l(3) =   1
                l(4) =   1
                l(5) =   2
                l(6) =   2
     Q(r) pseudized with  8 coefficients,  rinner =    1.100   1.100   1.100
                                                       1.100   1.100

     atomic species   valence    mass     pseudopotential
     O                 6.00    15.99940     O ( 1.00)
     Zn               20.00    65.38000     Zn( 1.00)

     12 Sym. Ops. (no inversion) found ( 6 have fractional translation)


                                    s                        frac. trans.

      isym =  1     identity                                     

 cryst.   s( 1) = (     1          0          0      )
                  (     0          1          0      )
                  (     0          0          1      )

 cart.    s( 1) = (  1.0000000  0.0000000  0.0000000 )
                  (  0.0000000  1.0000000  0.0000000 )
                  (  0.0000000  0.0000000  1.0000000 )


      isym =  2     180 deg rotation - cart. axis [0,0,1]        

 cryst.   s( 2) = (    -1          0          0      )    f =(  0.0000000 )
                  (     0         -1          0      )       ( -0.0000000 )
                  (     0          0          1      )       (  0.5000000 )

 cart.    s( 2) = ( -1.0000000  0.0000000  0.0000000 )    f =(  0.0000000 )
                  (  0.0000000 -1.0000000  0.0000000 )       ( -0.0000000 )
                  (  0.0000000  0.0000000  1.0000000 )       (  0.8065331 )


      isym =  3      60 deg rotation - cryst. axis [0,0,1]       

 cryst.   s( 3) = (     1          1          0      )    f =( -0.0000000 )
                  (    -1          0          0      )       (  0.0000000 )
                  (     0          0          1      )       (  0.5000000 )

 cart.    s( 3) = (  0.5000000 -0.8660254  0.0000000 )    f =( -0.0000000 )
                  (  0.8660254  0.5000000  0.0000000 )       (  0.0000000 )
                  (  0.0000000  0.0000000  1.0000000 )       (  0.8065331 )


      isym =  4      60 deg rotation - cryst. axis [0,0,-1]      

 cryst.   s( 4) = (     0         -1          0      )    f =(  0.0000000 )
                  (     1          1          0      )       (  0.0000000 )
                  (     0          0          1      )       (  0.5000000 )

 cart.    s( 4) = (  0.5000000  0.8660254  0.0000000 )    f =( -0.0000000 )
                  ( -0.8660254  0.5000000  0.0000000 )       (  0.0000000 )
                  (  0.0000000  0.0000000  1.0000000 )       (  0.8065331 )


      isym =  5     120 deg rotation - cryst. axis [0,0,1]       

 cryst.   s( 5) = (     0          1          0      )
                  (    -1         -1          0      )
                  (     0          0          1      )

 cart.    s( 5) = ( -0.5000000 -0.8660254  0.0000000 )
                  (  0.8660254 -0.5000000  0.0000000 )
                  (  0.0000000  0.0000000  1.0000000 )


      isym =  6     120 deg rotation - cryst. axis [0,0,-1]      

 cryst.   s( 6) = (    -1         -1          0      )
                  (     1          0          0      )
                  (     0          0          1      )

 cart.    s( 6) = ( -0.5000000  0.8660254  0.0000000 )
                  ( -0.8660254 -0.5000000  0.0000000 )
                  (  0.0000000  0.0000000  1.0000000 )


      isym =  7     inv. 180 deg rotation - cart. axis [0,1,0]   

 cryst.   s( 7) = (     1          0          0      )    f =( -0.0000000 )
                  (    -1         -1          0      )       ( -0.0000000 )
                  (     0          0          1      )       (  0.5000000 )

 cart.    s( 7) = (  1.0000000  0.0000000  0.0000000 )    f =( -0.0000000 )
                  (  0.0000000 -1.0000000  0.0000000 )       ( -0.0000000 )
                  (  0.0000000  0.0000000  1.0000000 )       (  0.8065331 )


      isym =  8     inv. 180 deg rotation - cart. axis [1,0,0]   

 cryst.   s( 8) = (    -1          0          0      )
                  (     1          1          0      )
                  (     0          0          1      )

 cart.    s( 8) = ( -1.0000000  0.0000000  0.0000000 )
                  (  0.0000000  1.0000000  0.0000000 )
                  (  0.0000000  0.0000000  1.0000000 )


      isym =  9     inv. 180 deg rotation - cryst. axis [1,-1,0] 

 cryst.   s( 9) = (     0          1          0      )    f =(  0.0000000 )
                  (     1          0          0      )       (  0.0000000 )
                  (     0          0          1      )       (  0.5000000 )

 cart.    s( 9) = ( -0.5000000  0.8660254  0.0000000 )    f =(  0.0000000 )
                  (  0.8660254  0.5000000  0.0000000 )       (  0.0000000 )
                  (  0.0000000  0.0000000  1.0000000 )       (  0.8065331 )


      isym = 10     inv. 180 deg rotation - cryst. axis [2,1,0]  

 cryst.   s(10) = (    -1         -1          0      )    f =(  0.0000000 )
                  (     0          1          0      )       (  0.0000000 )
                  (     0          0          1      )       (  0.5000000 )

 cart.    s(10) = ( -0.5000000 -0.8660254  0.0000000 )    f =( -0.0000000 )
                  ( -0.8660254  0.5000000  0.0000000 )       (  0.0000000 )
                  (  0.0000000  0.0000000  1.0000000 )       (  0.8065331 )


      isym = 11     inv. 180 deg rotation - cryst. axis [0,1,0]  

 cryst.   s(11) = (     1          1          0      )
                  (     0         -1          0      )
                  (     0          0          1      )

 cart.    s(11) = (  0.5000000  0.8660254  0.0000000 )
                  (  0.8660254 -0.5000000  0.0000000 )
                  (  0.0000000  0.0000000  1.0000000 )


      isym = 12     inv. 180 deg rotation - cryst. axis [1,1,0]  

 cryst.   s(12) = (     0         -1          0      )
                  (    -1          0          0      )
                  (     0          0          1      )

 cart.    s(12) = (  0.5000000 -0.8660254  0.0000000 )
                  ( -0.8660254 -0.5000000  0.0000000 )
                  (  0.0000000  0.0000000  1.0000000 )


   Cartesian axes

     site n.     atom                  positions (alat units)
         1        Zn     tau(   1) = (   0.5000000   0.2886751   0.8074875  )
         2        Zn     tau(   2) = (  -0.0000000   0.5773503   0.0009545  )
         3        O      tau(   3) = (   0.5000000   0.2886751   1.4190438  )
         4        O      tau(   4) = (  -0.0000000   0.5773503   0.6125107  )

   Crystallographic axes

     site n.     atom                  positions (cryst. coord.)
         1        Zn     tau(   1) = (  0.6666667  0.3333333  0.5005917  )
         2        Zn     tau(   2) = (  0.3333333  0.6666667  0.0005917  )
         3        O      tau(   3) = (  0.6666667  0.3333333  0.8797183  )
         4        O      tau(   4) = (  0.3333333  0.6666667  0.3797183  )

     number of k points=    95  Marzari-Vanderbilt smearing, width (Ry)=  0.0147
                       cart. coord. in units 2pi/alat
        k(    1) = (   0.0000000   0.0000000   0.0000000), wk =   0.0017361
        k(    2) = (   0.0000000   0.0000000   0.0774922), wk =   0.0034722
        k(    3) = (   0.0000000   0.0000000   0.1549843), wk =   0.0034722
        k(    4) = (   0.0000000   0.0000000   0.2324765), wk =   0.0034722
        k(    5) = (   0.0000000   0.0000000  -0.3099687), wk =   0.0017361
        k(    6) = (   0.0000000   0.0962250   0.0000000), wk =   0.0104167
        k(    7) = (   0.0000000   0.0962250   0.0774922), wk =   0.0208333
        k(    8) = (   0.0000000   0.0962250   0.1549843), wk =   0.0208333
        k(    9) = (   0.0000000   0.0962250   0.2324765), wk =   0.0208333
        k(   10) = (   0.0000000   0.0962250  -0.3099687), wk =   0.0104167
        k(   11) = (   0.0000000   0.1924501   0.0000000), wk =   0.0104167
        k(   12) = (   0.0000000   0.1924501   0.0774922), wk =   0.0208333
        k(   13) = (   0.0000000   0.1924501   0.1549843), wk =   0.0208333
        k(   14) = (   0.0000000   0.1924501   0.2324765), wk =   0.0208333
        k(   15) = (   0.0000000   0.1924501  -0.3099687), wk =   0.0104167
        k(   16) = (   0.0000000   0.2886751   0.0000000), wk =   0.0104167
        k(   17) = (   0.0000000   0.2886751   0.0774922), wk =   0.0208333
        k(   18) = (   0.0000000   0.2886751   0.1549843), wk =   0.0208333
        k(   19) = (   0.0000000   0.2886751   0.2324765), wk =   0.0208333
        k(   20) = (   0.0000000   0.2886751  -0.3099687), wk =   0.0104167
        k(   21) = (   0.0000000   0.3849002   0.0000000), wk =   0.0104167
        k(   22) = (   0.0000000   0.3849002   0.0774922), wk =   0.0208333
        k(   23) = (   0.0000000   0.3849002   0.1549843), wk =   0.0208333
        k(   24) = (   0.0000000   0.3849002   0.2324765), wk =   0.0208333
        k(   25) = (   0.0000000   0.3849002  -0.3099687), wk =   0.0104167
        k(   26) = (   0.0000000   0.4811252   0.0000000), wk =   0.0104167
        k(   27) = (   0.0000000   0.4811252   0.0774922), wk =   0.0208333
        k(   28) = (   0.0000000   0.4811252   0.1549843), wk =   0.0208333
        k(   29) = (   0.0000000   0.4811252   0.2324765), wk =   0.0208333
        k(   30) = (   0.0000000   0.4811252  -0.3099687), wk =   0.0104167
        k(   31) = (   0.0000000  -0.5773503   0.0000000), wk =   0.0052083
        k(   32) = (   0.0000000  -0.5773503   0.0774922), wk =   0.0104167
        k(   33) = (   0.0000000  -0.5773503   0.1549843), wk =   0.0104167
        k(   34) = (   0.0000000  -0.5773503   0.2324765), wk =   0.0104167
        k(   35) = (   0.0000000  -0.5773503  -0.3099687), wk =   0.0052083
        k(   36) = (   0.0833333   0.1443376   0.0000000), wk =   0.0104167
        k(   37) = (   0.0833333   0.1443376   0.0774922), wk =   0.0208333
        k(   38) = (   0.0833333   0.1443376   0.1549843), wk =   0.0208333
        k(   39) = (   0.0833333   0.1443376   0.2324765), wk =   0.0208333
        k(   40) = (   0.0833333   0.1443376  -0.3099687), wk =   0.0104167
        k(   41) = (   0.0833333   0.2405626   0.0000000), wk =   0.0208333
        k(   42) = (   0.0833333   0.2405626   0.0774922), wk =   0.0416667
        k(   43) = (   0.0833333   0.2405626   0.1549843), wk =   0.0416667
        k(   44) = (   0.0833333   0.2405626   0.2324765), wk =   0.0416667
        k(   45) = (   0.0833333   0.2405626  -0.3099687), wk =   0.0208333
        k(   46) = (   0.0833333   0.3367877   0.0000000), wk =   0.0208333
        k(   47) = (   0.0833333   0.3367877   0.0774922), wk =   0.0416667
        k(   48) = (   0.0833333   0.3367877   0.1549843), wk =   0.0416667
        k(   49) = (   0.0833333   0.3367877   0.2324765), wk =   0.0416667
        k(   50) = (   0.0833333   0.3367877  -0.3099687), wk =   0.0208333
        k(   51) = (   0.0833333   0.4330127   0.0000000), wk =   0.0208333
        k(   52) = (   0.0833333   0.4330127   0.0774922), wk =   0.0416667
        k(   53) = (   0.0833333   0.4330127   0.1549843), wk =   0.0416667
        k(   54) = (   0.0833333   0.4330127   0.2324765), wk =   0.0416667
        k(   55) = (   0.0833333   0.4330127  -0.3099687), wk =   0.0208333
        k(   56) = (   0.0833333   0.5292377   0.0000000), wk =   0.0208333
        k(   57) = (   0.0833333   0.5292377   0.0774922), wk =   0.0416667
        k(   58) = (   0.0833333   0.5292377   0.1549843), wk =   0.0416667
        k(   59) = (   0.0833333   0.5292377   0.2324765), wk =   0.0416667
        k(   60) = (   0.0833333   0.5292377  -0.3099687), wk =   0.0208333
        k(   61) = (   0.1666667   0.2886751   0.0000000), wk =   0.0104167
        k(   62) = (   0.1666667   0.2886751   0.0774922), wk =   0.0208333
        k(   63) = (   0.1666667   0.2886751   0.1549843), wk =   0.0208333
        k(   64) = (   0.1666667   0.2886751   0.2324765), wk =   0.0208333
        k(   65) = (   0.1666667   0.2886751  -0.3099687), wk =   0.0104167
        k(   66) = (   0.1666667   0.3849002   0.0000000), wk =   0.0208333
        k(   67) = (   0.1666667   0.3849002   0.0774922), wk =   0.0416667
        k(   68) = (   0.1666667   0.3849002   0.1549843), wk =   0.0416667
        k(   69) = (   0.1666667   0.3849002   0.2324765), wk =   0.0416667
        k(   70) = (   0.1666667   0.3849002  -0.3099687), wk =   0.0208333
        k(   71) = (   0.1666667   0.4811252   0.0000000), wk =   0.0208333
        k(   72) = (   0.1666667   0.4811252   0.0774922), wk =   0.0416667
        k(   73) = (   0.1666667   0.4811252   0.1549843), wk =   0.0416667
        k(   74) = (   0.1666667   0.4811252   0.2324765), wk =   0.0416667
        k(   75) = (   0.1666667   0.4811252  -0.3099687), wk =   0.0208333
        k(   76) = (   0.1666667   0.5773503   0.0000000), wk =   0.0104167
        k(   77) = (   0.1666667   0.5773503   0.0774922), wk =   0.0208333
        k(   78) = (   0.1666667   0.5773503   0.1549843), wk =   0.0208333
        k(   79) = (   0.1666667   0.5773503   0.2324765), wk =   0.0208333
        k(   80) = (   0.1666667   0.5773503  -0.3099687), wk =   0.0104167
        k(   81) = (   0.2500000   0.4330127   0.0000000), wk =   0.0104167
        k(   82) = (   0.2500000   0.4330127   0.0774922), wk =   0.0208333
        k(   83) = (   0.2500000   0.4330127   0.1549843), wk =   0.0208333
        k(   84) = (   0.2500000   0.4330127   0.2324765), wk =   0.0208333
        k(   85) = (   0.2500000   0.4330127  -0.3099687), wk =   0.0104167
        k(   86) = (   0.2500000   0.5292377   0.0000000), wk =   0.0208333
        k(   87) = (   0.2500000   0.5292377   0.0774922), wk =   0.0416667
        k(   88) = (   0.2500000   0.5292377   0.1549843), wk =   0.0416667
        k(   89) = (   0.2500000   0.5292377   0.2324765), wk =   0.0416667
        k(   90) = (   0.2500000   0.5292377  -0.3099687), wk =   0.0208333
        k(   91) = (   0.3333333   0.5773503   0.0000000), wk =   0.0034722
        k(   92) = (   0.3333333   0.5773503   0.0774922), wk =   0.0069444
        k(   93) = (   0.3333333   0.5773503   0.1549843), wk =   0.0069444
        k(   94) = (   0.3333333   0.5773503   0.2324765), wk =   0.0069444
        k(   95) = (   0.3333333   0.5773503  -0.3099687), wk =   0.0034722

                       cryst. coord.
        k(    1) = (   0.0000000   0.0000000   0.0000000), wk =   0.0017361
        k(    2) = (   0.0000000   0.0000000   0.1250000), wk =   0.0034722
        k(    3) = (   0.0000000   0.0000000   0.2500000), wk =   0.0034722
        k(    4) = (   0.0000000   0.0000000   0.3750000), wk =   0.0034722
        k(    5) = (   0.0000000   0.0000000  -0.5000000), wk =   0.0017361
        k(    6) = (   0.0000000   0.0833333   0.0000000), wk =   0.0104167
        k(    7) = (   0.0000000   0.0833333   0.1250000), wk =   0.0208333
        k(    8) = (   0.0000000   0.0833333   0.2500000), wk =   0.0208333
        k(    9) = (   0.0000000   0.0833333   0.3750000), wk =   0.0208333
        k(   10) = (   0.0000000   0.0833333  -0.5000000), wk =   0.0104167
        k(   11) = (   0.0000000   0.1666667   0.0000000), wk =   0.0104167
        k(   12) = (   0.0000000   0.1666667   0.1250000), wk =   0.0208333
        k(   13) = (   0.0000000   0.1666667   0.2500000), wk =   0.0208333
        k(   14) = (   0.0000000   0.1666667   0.3750000), wk =   0.0208333
        k(   15) = (   0.0000000   0.1666667  -0.5000000), wk =   0.0104167
        k(   16) = (   0.0000000   0.2500000   0.0000000), wk =   0.0104167
        k(   17) = (   0.0000000   0.2500000   0.1250000), wk =   0.0208333
        k(   18) = (   0.0000000   0.2500000   0.2500000), wk =   0.0208333
        k(   19) = (   0.0000000   0.2500000   0.3750000), wk =   0.0208333
        k(   20) = (   0.0000000   0.2500000  -0.5000000), wk =   0.0104167
        k(   21) = (   0.0000000   0.3333333   0.0000000), wk =   0.0104167
        k(   22) = (   0.0000000   0.3333333   0.1250000), wk =   0.0208333
        k(   23) = (   0.0000000   0.3333333   0.2500000), wk =   0.0208333
        k(   24) = (   0.0000000   0.3333333   0.3750000), wk =   0.0208333
        k(   25) = (   0.0000000   0.3333333  -0.5000000), wk =   0.0104167
        k(   26) = (   0.0000000   0.4166667   0.0000000), wk =   0.0104167
        k(   27) = (   0.0000000   0.4166667   0.1250000), wk =   0.0208333
        k(   28) = (   0.0000000   0.4166667   0.2500000), wk =   0.0208333
        k(   29) = (   0.0000000   0.4166667   0.3750000), wk =   0.0208333
        k(   30) = (   0.0000000   0.4166667  -0.5000000), wk =   0.0104167
        k(   31) = (   0.0000000  -0.5000000   0.0000000), wk =   0.0052083
        k(   32) = (   0.0000000  -0.5000000   0.1250000), wk =   0.0104167
        k(   33) = (   0.0000000  -0.5000000   0.2500000), wk =   0.0104167
        k(   34) = (   0.0000000  -0.5000000   0.3750000), wk =   0.0104167
        k(   35) = (   0.0000000  -0.5000000  -0.5000000), wk =   0.0052083
        k(   36) = (   0.0833333   0.0833333   0.0000000), wk =   0.0104167
        k(   37) = (   0.0833333   0.0833333   0.1250000), wk =   0.0208333
        k(   38) = (   0.0833333   0.0833333   0.2500000), wk =   0.0208333
        k(   39) = (   0.0833333   0.0833333   0.3750000), wk =   0.0208333
        k(   40) = (   0.0833333   0.0833333  -0.5000000), wk =   0.0104167
        k(   41) = (   0.0833333   0.1666667   0.0000000), wk =   0.0208333
        k(   42) = (   0.0833333   0.1666667   0.1250000), wk =   0.0416667
        k(   43) = (   0.0833333   0.1666667   0.2500000), wk =   0.0416667
        k(   44) = (   0.0833333   0.1666667   0.3750000), wk =   0.0416667
        k(   45) = (   0.0833333   0.1666667  -0.5000000), wk =   0.0208333
        k(   46) = (   0.0833333   0.2500000   0.0000000), wk =   0.0208333
        k(   47) = (   0.0833333   0.2500000   0.1250000), wk =   0.0416667
        k(   48) = (   0.0833333   0.2500000   0.2500000), wk =   0.0416667
        k(   49) = (   0.0833333   0.2500000   0.3750000), wk =   0.0416667
        k(   50) = (   0.0833333   0.2500000  -0.5000000), wk =   0.0208333
        k(   51) = (   0.0833333   0.3333333   0.0000000), wk =   0.0208333
        k(   52) = (   0.0833333   0.3333333   0.1250000), wk =   0.0416667
        k(   53) = (   0.0833333   0.3333333   0.2500000), wk =   0.0416667
        k(   54) = (   0.0833333   0.3333333   0.3750000), wk =   0.0416667
        k(   55) = (   0.0833333   0.3333333  -0.5000000), wk =   0.0208333
        k(   56) = (   0.0833333   0.4166667   0.0000000), wk =   0.0208333
        k(   57) = (   0.0833333   0.4166667   0.1250000), wk =   0.0416667
        k(   58) = (   0.0833333   0.4166667   0.2500000), wk =   0.0416667
        k(   59) = (   0.0833333   0.4166667   0.3750000), wk =   0.0416667
        k(   60) = (   0.0833333   0.4166667  -0.5000000), wk =   0.0208333
        k(   61) = (   0.1666667   0.1666667   0.0000000), wk =   0.0104167
        k(   62) = (   0.1666667   0.1666667   0.1250000), wk =   0.0208333
        k(   63) = (   0.1666667   0.1666667   0.2500000), wk =   0.0208333
        k(   64) = (   0.1666667   0.1666667   0.3750000), wk =   0.0208333
        k(   65) = (   0.1666667   0.1666667  -0.5000000), wk =   0.0104167
        k(   66) = (   0.1666667   0.2500000   0.0000000), wk =   0.0208333
        k(   67) = (   0.1666667   0.2500000   0.1250000), wk =   0.0416667
        k(   68) = (   0.1666667   0.2500000   0.2500000), wk =   0.0416667
        k(   69) = (   0.1666667   0.2500000   0.3750000), wk =   0.0416667
        k(   70) = (   0.1666667   0.2500000  -0.5000000), wk =   0.0208333
        k(   71) = (   0.1666667   0.3333333   0.0000000), wk =   0.0208333
        k(   72) = (   0.1666667   0.3333333   0.1250000), wk =   0.0416667
        k(   73) = (   0.1666667   0.3333333   0.2500000), wk =   0.0416667
        k(   74) = (   0.1666667   0.3333333   0.3750000), wk =   0.0416667
        k(   75) = (   0.1666667   0.3333333  -0.5000000), wk =   0.0208333
        k(   76) = (   0.1666667   0.4166667   0.0000000), wk =   0.0104167
        k(   77) = (   0.1666667   0.4166667   0.1250000), wk =   0.0208333
        k(   78) = (   0.1666667   0.4166667   0.2500000), wk =   0.0208333
        k(   79) = (   0.1666667   0.4166667   0.3750000), wk =   0.0208333
        k(   80) = (   0.1666667   0.4166667  -0.5000000), wk =   0.0104167
        k(   81) = (   0.2500000   0.2500000   0.0000000), wk =   0.0104167
        k(   82) = (   0.2500000   0.2500000   0.1250000), wk =   0.0208333
        k(   83) = (   0.2500000   0.2500000   0.2500000), wk =   0.0208333
        k(   84) = (   0.2500000   0.2500000   0.3750000), wk =   0.0208333
        k(   85) = (   0.2500000   0.2500000  -0.5000000), wk =   0.0104167
        k(   86) = (   0.2500000   0.3333333   0.0000000), wk =   0.0208333
        k(   87) = (   0.2500000   0.3333333   0.1250000), wk =   0.0416667
        k(   88) = (   0.2500000   0.3333333   0.2500000), wk =   0.0416667
        k(   89) = (   0.2500000   0.3333333   0.3750000), wk =   0.0416667
        k(   90) = (   0.2500000   0.3333333  -0.5000000), wk =   0.0208333
        k(   91) = (   0.3333333   0.3333333   0.0000000), wk =   0.0034722
        k(   92) = (   0.3333333   0.3333333   0.1250000), wk =   0.0069444
        k(   93) = (   0.3333333   0.3333333   0.2500000), wk =   0.0069444
        k(   94) = (   0.3333333   0.3333333   0.3750000), wk =   0.0069444
        k(   95) = (   0.3333333   0.3333333  -0.5000000), wk =   0.0034722

     Dense  grid:    31551 G-vectors     FFT dimensions: (  36,  36,  60)

     Smooth grid:    11175 G-vectors     FFT dimensions: (  25,  25,  40)

     Dynamical RAM for                 wfc:       0.66 MB

     Dynamical RAM for     wfc (w. buffer):      63.21 MB

     Dynamical RAM for           str. fact:       0.96 MB

     Dynamical RAM for           local pot:       0.00 MB

     Dynamical RAM for          nlocal pot:       1.10 MB

     Dynamical RAM for                qrad:       3.21 MB

     Dynamical RAM for          rho,v,vnew:       3.22 MB

     Dynamical RAM for               rhoin:       1.07 MB

     Dynamical RAM for            rho*nmix:       7.70 MB

     Dynamical RAM for           G-vectors:       1.89 MB

     Dynamical RAM for          h,s,v(r/c):       0.18 MB

     Dynamical RAM for          <psi|beta>:       0.02 MB

     Dynamical RAM for                 psi:       1.32 MB

     Dynamical RAM for                hpsi:       1.32 MB

     Dynamical RAM for                spsi:       1.32 MB

     Dynamical RAM for      wfcinit/wfcrot:       1.47 MB

     Dynamical RAM for           addusdens:      90.51 MB

     Dynamical RAM for          addusforce:      91.72 MB

     Dynamical RAM for         addusstress:      96.77 MB

     Estimated static dynamical RAM per process >      79.09 MB

     Estimated max dynamical RAM per process >     183.56 MB

     Check: negative core charge=   -0.000003

     Initial potential from superposition of free atoms

     starting charge      51.9997, renormalised to      52.0000
     Starting wfcs are   34 randomized atomic wfcs
     Checking if some PAW data can be deallocated... 

     total cpu time spent up to now is        6.9 secs

     Self-consistent Calculation

     iteration #  1     ecut=    50.00 Ry     beta= 0.40
     Davidson diagonalization with overlap

---- Real-time Memory Report at c_bands before calling an iterative solver
           138 MiB given to the printing process from OS
             0 MiB allocation reported by mallinfo(arena+hblkhd)
          4588 MiB available memory on the node where the printing process lives
------------------
     ethr =  1.00E-02,  avg # of iterations =  3.0

     total cpu time spent up to now is       22.8 secs

     total energy              =   -1006.09932217 Ry
     estimated scf accuracy    <       0.84729246 Ry

     iteration #  2     ecut=    50.00 Ry     beta= 0.40
     Davidson diagonalization with overlap

---- Real-time Memory Report at c_bands before calling an iterative solver
           224 MiB given to the printing process from OS
             0 MiB allocation reported by mallinfo(arena+hblkhd)
          4636 MiB available memory on the node where the printing process lives
------------------
     ethr =  1.63E-03,  avg # of iterations =  2.2

     total cpu time spent up to now is       39.4 secs

     total energy              =   -1006.31099142 Ry
     estimated scf accuracy    <       0.04936030 Ry

     iteration #  3     ecut=    50.00 Ry     beta= 0.40
     Davidson diagonalization with overlap

---- Real-time Memory Report at c_bands before calling an iterative solver
           225 MiB given to the printing process from OS
             0 MiB allocation reported by mallinfo(arena+hblkhd)
          4641 MiB available memory on the node where the printing process lives
------------------
     ethr =  9.49E-05,  avg # of iterations =  3.6

     total cpu time spent up to now is       56.2 secs

     total energy              =   -1006.31759192 Ry
     estimated scf accuracy    <       0.00723067 Ry

     iteration #  4     ecut=    50.00 Ry     beta= 0.40
     Davidson diagonalization with overlap

---- Real-time Memory Report at c_bands before calling an iterative solver
           225 MiB given to the printing process from OS
             0 MiB allocation reported by mallinfo(arena+hblkhd)
          4640 MiB available memory on the node where the printing process lives
------------------
     ethr =  1.39E-05,  avg # of iterations =  2.5

     total cpu time spent up to now is       75.6 secs

     total energy              =   -1006.31755452 Ry
     estimated scf accuracy    <       0.00212231 Ry

     iteration #  5     ecut=    50.00 Ry     beta= 0.40
     Davidson diagonalization with overlap

---- Real-time Memory Report at c_bands before calling an iterative solver
           226 MiB given to the printing process from OS
             0 MiB allocation reported by mallinfo(arena+hblkhd)
          4639 MiB available memory on the node where the printing process lives
------------------
     ethr =  4.08E-06,  avg # of iterations =  2.0

     total cpu time spent up to now is       96.7 secs

     total energy              =   -1006.31764974 Ry
     estimated scf accuracy    <       0.00001847 Ry

     iteration #  6     ecut=    50.00 Ry     beta= 0.40
     Davidson diagonalization with overlap

---- Real-time Memory Report at c_bands before calling an iterative solver
           226 MiB given to the printing process from OS
             0 MiB allocation reported by mallinfo(arena+hblkhd)
          4642 MiB available memory on the node where the printing process lives
------------------
     ethr =  3.55E-08,  avg # of iterations =  3.1

     total cpu time spent up to now is      114.7 secs

     total energy              =   -1006.31765368 Ry
     estimated scf accuracy    <       0.00003951 Ry

     iteration #  7     ecut=    50.00 Ry     beta= 0.40
     Davidson diagonalization with overlap

---- Real-time Memory Report at c_bands before calling an iterative solver
           227 MiB given to the printing process from OS
             0 MiB allocation reported by mallinfo(arena+hblkhd)
          4645 MiB available memory on the node where the printing process lives
------------------
     ethr =  3.55E-08,  avg # of iterations =  2.0

     total cpu time spent up to now is      135.3 secs

     total energy              =   -1006.31765874 Ry
     estimated scf accuracy    <       0.00000084 Ry

     iteration #  8     ecut=    50.00 Ry     beta= 0.40
     Davidson diagonalization with overlap

---- Real-time Memory Report at c_bands before calling an iterative solver
           227 MiB given to the printing process from OS
             0 MiB allocation reported by mallinfo(arena+hblkhd)
          4637 MiB available memory on the node where the printing process lives
------------------
     ethr =  1.62E-09,  avg # of iterations =  2.1

     total cpu time spent up to now is      160.7 secs

     total energy              =   -1006.31765901 Ry
     estimated scf accuracy    <       0.00000048 Ry

     iteration #  9     ecut=    50.00 Ry     beta= 0.40
     Davidson diagonalization with overlap

---- Real-time Memory Report at c_bands before calling an iterative solver
           227 MiB given to the printing process from OS
             0 MiB allocation reported by mallinfo(arena+hblkhd)
          4600 MiB available memory on the node where the printing process lives
------------------
     ethr =  9.28E-10,  avg # of iterations =  2.0

     total cpu time spent up to now is      183.3 secs

     End of self-consistent calculation

          k = 0.0000 0.0000 0.0000 (  1387 PWs)   bands (ev):

  -109.0750-109.0737 -63.3085 -63.2937 -63.2937 -63.2917 -63.2910 -63.2910
    -6.0914  -4.7395   6.5439   7.2582   7.2582   7.3506   7.5671   7.5671
     9.5865   9.5865  10.0111  10.0111  10.4908  14.0053  14.0054  15.0010
    15.2427  15.2427  16.4577  21.6340  24.4521  29.7908  29.7909

     occupation numbers 
     1.0000   1.0000   1.0000   1.0000   1.0000   1.0000   1.0000   1.0000
     1.0000   1.0000   1.0000   1.0000   1.0000   1.0000   1.0000   1.0000
     1.0000   1.0000   1.0000   1.0000   1.0000   1.0000   1.0000   1.0000
     1.0000   1.0000   0.0001   0.0000   0.0000   0.0000   0.0000

          k = 0.0000 0.0000 0.0775 (  1388 PWs)   bands (ev):

  -109.0750-109.0738 -63.3079 -63.2936 -63.2936 -63.2924 -63.2911 -63.2911
    -6.0444  -4.7958   6.5263   7.2639   7.2639   7.2861   7.5485   7.5485
     9.6089   9.6089  10.0028  10.0028  10.6840  14.0515  14.0515  14.6887
    15.1956  15.1956  16.8384  21.4423  24.6022  29.7736  29.7736

     occupation numbers 
     1.0000   1.0000   1.0000   1.0000   1.0000   1.0000   1.0000   1.0000
     1.0000   1.0000   1.0000   1.0000   1.0000   1.0000   1.0000   1.0000
     1.0000   1.0000   1.0000   1.0000   1.0000   1.0000   1.0000   1.0000
     1.0000   1.0000   0.0000   0.0000   0.0000   0.0000   0.0000

          k = 0.0000 0.0000 0.1550 (  1394 PWs)   bands (ev):

  -109.0748-109.0739 -63.3062 -63.2942 -63.2932 -63.2932 -63.2914 -63.2914
    -5.9089  -4.9541   6.5109   7.1158   7.2827   7.2827   7.4989   7.4989
     9.6705   9.6705   9.9748   9.9748  11.1995  14.0928  14.1838  14.1838
    15.0613  15.0613  17.6072  20.9355  25.0094  28.9035  29.7627

     occupation numbers 
     1.0000   1.0000   1.0000   1.0000   1.0000   1.0000   1.0000   1.0000
     1.0000   1.0000   1.0000   1.0000   1.0000   1.0000   1.0000   1.0000
     1.0000   1.0000   1.0000   1.0000   1.0000   1.0000   1.0000   1.0000
     1.0000   1.0000   0.0000   0.0000   0.0000   0.0000   0.0000

          k = 0.0000 0.0000 0.2325 (  1424 PWs)   bands (ev):

  -109.0747-109.0742 -63.3036 -63.2971 -63.2930 -63.2930 -63.2920 -63.2920
    -5.7010  -5.1847   6.5586   6.8966   7.3176   7.3176   7.4337   7.4337
     9.7558   9.7558   9.9220   9.9220  11.9029  13.4105  14.3838  14.3838
    14.8595  14.8595  18.4906  20.2238  25.6335  27.5958  29.8372

     occupation numbers 
     1.0000   1.0000   1.0000   1.0000   1.0000   1.0000   1.0000   1.0000
     1.0000   1.0000   1.0000   1.0000   1.0000   1.0000   1.0000   1.0000
     1.0000   1.0000   1.0000   1.0000   1.0000   1.0000   1.0000   1.0000
     1.0000   1.0000   0.0000   0.0000   0.0000   0.0000   0.0000

          k = 0.0000 0.0000-0.3100 (  1400 PWs)   bands (ev):

  -109.0744-109.0744 -63.3001 -63.3001 -63.2924 -63.2924 -63.2924 -63.2924
    -5.4475  -5.4475   6.6938   6.6938   7.3695   7.3695   7.3695   7.3695
     9.8456   9.8456   9.8456   9.8456  12.6681  12.6681  14.6213  14.6213
    14.6213  14.6213  19.3867  19.3867  26.4899  26.4899  30.0553

     occupation numbers 
     1.0000   1.0000   1.0000   1.0000   1.0000   1.0000   1.0000   1.0000
     1.0000   1.0000   1.0000   1.0000   1.0000   1.0000   1.0000   1.0000
     1.0000   1.0000   1.0000   1.0000   1.0000   1.0000   1.0000   1.0000
     1.0000   1.0000   0.0000   0.0000   0.0000   0.0000   0.0000

          k = 0.0000 0.0962 0.0000 (  1383 PWs)   bands (ev):

  -109.0749-109.0737 -63.3082 -63.2945 -63.2940 -63.2919 -63.2916 -63.2911
    -6.0216  -4.7074   6.6244   7.1702   7.2936   7.3904   7.5443   7.6153
     9.5485   9.5799  10.0191  10.0318  10.4804  13.6901  13.8677  14.8104
    14.9373  15.1667  16.9887  22.0015  24.4094  28.7493  29.9103

     occupation numbers 
     1.0000   1.0000   1.0000   1.0000   1.0000   1.0000   1.0000   1.0000
     1.0000   1.0000   1.0000   1.0000   1.0000   1.0000   1.0000   1.0000
     1.0000   1.0000   1.0000   1.0000   1.0000   1.0000   1.0000   1.0000
     1.0000   1.0000   0.0000   0.0000   0.0000   0.0000   0.0000

          k = 0.0000 0.0962 0.0775 (  1385 PWs)   bands (ev):

  -109.0749-109.0738 -63.3076 -63.2944 -63.2938 -63.2928 -63.2916 -63.2912
    -5.9756  -4.7617   6.5918   7.1414   7.2999   7.3620   7.5325   7.5961
     9.5744   9.6023  10.0095  10.0223  10.6785  13.7371  13.9167  14.5271
    14.9674  15.1176  17.2576  21.7825  24.5757  28.7645  29.8931

     occupation numbers 
     1.0000   1.0000   1.0000   1.0000   1.0000   1.0000   1.0000   1.0000
     1.0000   1.0000   1.0000   1.0000   1.0000   1.0000   1.0000   1.0000
     1.0000   1.0000   1.0000   1.0000   1.0000   1.0000   1.0000   1.0000
     1.0000   1.0000   0.0000   0.0000   0.0000   0.0000   0.0000

          k = 0.0000 0.0962 0.1550 (  1395 PWs)   bands (ev):

  -109.0748-109.0739 -63.3060 -63.2946 -63.2940 -63.2936 -63.2918 -63.2916
    -5.8430  -4.9145   6.5436   7.0249   7.3201   7.3323   7.4960   7.5451
     9.6446   9.6642   9.9782   9.9893  11.2060  13.8635  14.0311  14.0570
    14.8438  14.9775  17.9103  21.2270  25.0040  28.6259  29.3030

     occupation numbers 
     1.0000   1.0000   1.0000   1.0000   1.0000   1.0000   1.0000   1.0000
     1.0000   1.0000   1.0000   1.0000   1.0000   1.0000   1.0000   1.0000
     1.0000   1.0000   1.0000   1.0000   1.0000   1.0000   1.0000   1.0000
     1.0000   1.0000   0.0000   0.0000   0.0000   0.0000   0.0000

          k = 0.0000 0.0962 0.2325 (  1396 PWs)   bands (ev):

  -109.0746-109.0741 -63.3035 -63.2972 -63.2935 -63.2931 -63.2923 -63.2921
    -5.6399  -5.1377   6.5572   6.8383   7.3451   7.3570   7.4418   7.4779
     9.7408   9.7503   9.9216   9.9284  11.9194  13.3931  14.0911  14.2680
    14.6148  14.7669  18.7404  20.4776  25.6340  27.5615  29.2432

     occupation numbers 
     1.0000   1.0000   1.0000   1.0000   1.0000   1.0000   1.0000   1.0000
     1.0000   1.0000   1.0000   1.0000   1.0000   1.0000   1.0000   1.0000
     1.0000   1.0000   1.0000   1.0000   1.0000   1.0000   1.0000   1.0000
     1.0000   1.0000   0.0000   0.0000   0.0000   0.0000   0.0000

          k = 0.0000 0.0962-0.3100 (  1388 PWs)   bands (ev):

  -109.0743-109.0743 -63.3003 -63.3003 -63.2929 -63.2929 -63.2925 -63.2925
    -5.3930  -5.3930   6.6625   6.6625   7.3864   7.3864   7.4113   7.4113
     9.8417   9.8417   9.8420   9.8420  12.6807  12.6807  14.3472  14.3472
    14.5176  14.5176  19.6244  19.6244  26.4822  26.4822  29.5309

     occupation numbers 
     1.0000   1.0000   1.0000   1.0000   1.0000   1.0000   1.0000   1.0000
     1.0000   1.0000   1.0000   1.0000   1.0000   1.0000   1.0000   1.0000
     1.0000   1.0000   1.0000   1.0000   1.0000   1.0000   1.0000   1.0000
     1.0000   1.0000   0.0000   0.0000   0.0000   0.0000   0.0000

          k = 0.0000 0.1925 0.0000 (  1379 PWs)   bands (ev):

  -109.0747-109.0736 -63.3073 -63.2965 -63.2946 -63.2938 -63.2924 -63.2915
    -5.8237  -4.6217   6.7787   7.0336   7.3877   7.4140   7.5712   7.7534
     9.4467   9.5789  10.0372  10.0642  10.4800  12.8906  13.4923  14.1164
    14.7357  14.9505  17.9696  22.9067  24.2587  27.2282  29.7437

     occupation numbers 
     1.0000   1.0000   1.0000   1.0000   1.0000   1.0000   1.0000   1.0000
     1.0000   1.0000   1.0000   1.0000   1.0000   1.0000   1.0000   1.0000
     1.0000   1.0000   1.0000   1.0000   1.0000   1.0000   1.0000   1.0000
     1.0000   1.0000   0.0000   0.0000   0.0000   0.0000   0.0000

          k = 0.0000 0.1925 0.0775 (  1384 PWs)   bands (ev):

  -109.0747-109.0737 -63.3068 -63.2964 -63.2945 -63.2944 -63.2925 -63.2917
    -5.7807  -4.6701   6.7162   6.9704   7.3957   7.4248   7.5630   7.7324
     9.4835   9.6005  10.0247  10.0636  10.6787  12.9411  13.5492  13.9918
    14.6934  14.8964  18.1356  22.5734  24.5095  27.2761  29.6477

     occupation numbers 
     1.0000   1.0000   1.0000   1.0000   1.0000   1.0000   1.0000   1.0000
     1.0000   1.0000   1.0000   1.0000   1.0000   1.0000   1.0000   1.0000
     1.0000   1.0000   1.0000   1.0000   1.0000   1.0000   1.0000   1.0000
     1.0000   1.0000   0.0000   0.0000   0.0000   0.0000   0.0000

          k = 0.0000 0.1925 0.1550 (  1389 PWs)   bands (ev):

  -109.0746-109.0738 -63.3055 -63.2961 -63.2958 -63.2942 -63.2928 -63.2920
    -5.6571  -4.8068   6.5943   6.8390   7.4209   7.4237   7.5409   7.6764
     9.5788   9.6603   9.9861  10.0271  11.2260  13.0837  13.7021  13.7107
    14.4937  14.7418  18.6123  21.8728  25.0059  27.3588  29.1185

     occupation numbers 
     1.0000   1.0000   1.0000   1.0000   1.0000   1.0000   1.0000   1.0000
     1.0000   1.0000   1.0000   1.0000   1.0000   1.0000   1.0000   1.0000
     1.0000   1.0000   1.0000   1.0000   1.0000   1.0000   1.0000   1.0000
     1.0000   1.0000   0.0000   0.0000   0.0000   0.0000   0.0000

          k = 0.0000 0.1925 0.2325 (  1392 PWs)   bands (ev):

  -109.0744-109.0740 -63.3034 -63.2983 -63.2951 -63.2937 -63.2934 -63.2925
    -5.4687  -5.0084   6.5280   6.6859   7.4292   7.4650   7.5016   7.6021
     9.7046   9.7450   9.9220   9.9473  11.9504  13.1657  13.4491  13.9506
    14.1263  14.5086  19.3234  21.0392  25.6178  27.1084  28.5524

     occupation numbers 
     1.0000   1.0000   1.0000   1.0000   1.0000   1.0000   1.0000   1.0000
     1.0000   1.0000   1.0000   1.0000   1.0000   1.0000   1.0000   1.0000
     1.0000   1.0000   1.0000   1.0000   1.0000   1.0000   1.0000   1.0000
     1.0000   1.0000   0.0000   0.0000   0.0000   0.0000   0.0000

          k = 0.0000 0.1925-0.3100 (  1384 PWs)   bands (ev):

  -109.0742-109.0742 -63.3009 -63.3008 -63.2942 -63.2942 -63.2930 -63.2930
    -5.2413  -5.2413   6.5646   6.5646   7.4582   7.4582   7.5274   7.5274
     9.8346   9.8346   9.8377   9.8377  12.6604  12.6604  13.7218  13.7218
    14.2311  14.2311  20.1636  20.1636  26.3579  26.3579  28.7281

     occupation numbers 
     1.0000   1.0000   1.0000   1.0000   1.0000   1.0000   1.0000   1.0000
     1.0000   1.0000   1.0000   1.0000   1.0000   1.0000   1.0000   1.0000
     1.0000   1.0000   1.0000   1.0000   1.0000   1.0000   1.0000   1.0000
     1.0000   1.0000   0.0000   0.0000   0.0000   0.0000   0.0000

          k = 0.0000 0.2887 0.0000 (  1383 PWs)   bands (ev):

  -109.0745-109.0736 -63.3059 -63.2994 -63.2969 -63.2956 -63.2932 -63.2921
    -5.5329  -4.5124   6.6449   7.1282   7.4395   7.5045   7.7780   7.9644
     9.3226   9.6215  10.0325  10.0578  10.5716  11.9294  12.9702  13.3603
    14.3948  14.6339  19.1014  23.7868  24.0548  26.0133  28.8394

     occupation numbers 
     1.0000   1.0000   1.0000   1.0000   1.0000   1.0000   1.0000   1.0000
     1.0000   1.0000   1.0000   1.0000   1.0000   1.0000   1.0000   1.0000
     1.0000   1.0000   1.0000   1.0000   1.0000   1.0000   1.0000   1.0000
     1.0000   1.0000   0.0000   0.0000   0.0000   0.0000   0.0000

          k = 0.0000 0.2887 0.0775 (  1395 PWs)   bands (ev):

  -109.0744-109.0736 -63.3058 -63.2991 -63.2975 -63.2955 -63.2934 -63.2923
    -5.4950  -4.5515   6.6078   6.9656   7.4953   7.5162   7.7601   7.9394
     9.3776   9.6397  10.0423  10.0800  10.7304  11.9872  13.0383  13.2690
    14.3791  14.5737  19.1852  23.1808  24.5615  26.0587  28.8256

     occupation numbers 
     1.0000   1.0000   1.0000   1.0000   1.0000   1.0000   1.0000   1.0000
     1.0000   1.0000   1.0000   1.0000   1.0000   1.0000   1.0000   1.0000
     1.0000   1.0000   1.0000   1.0000   1.0000   1.0000   1.0000   1.0000
     1.0000   1.0000   0.0000   0.0000   0.0000   0.0000   0.0000

          k = 0.0000 0.2887 0.1550 (  1394 PWs)   bands (ev):

  -109.0743-109.0737 -63.3051 -63.2988 -63.2981 -63.2951 -63.2937 -63.2926
    -5.3863  -4.6632   6.5140   6.7154   7.5330   7.5515   7.7137   7.8724
     9.5096   9.6907   9.9980  10.0736  11.2462  12.1554  13.0633  13.2294
    14.2312  14.4014  19.4717  22.3814  25.0953  26.1747  28.5659

     occupation numbers 
     1.0000   1.0000   1.0000   1.0000   1.0000   1.0000   1.0000   1.0000
     1.0000   1.0000   1.0000   1.0000   1.0000   1.0000   1.0000   1.0000
     1.0000   1.0000   1.0000   1.0000   1.0000   1.0000   1.0000   1.0000
     1.0000   1.0000   0.0000   0.0000   0.0000   0.0000   0.0000

          k = 0.0000 0.2887 0.2325 (  1392 PWs)   bands (ev):

  -109.0742-109.0738 -63.3039 -63.3005 -63.2968 -63.2945 -63.2944 -63.2932
    -5.2223  -4.8304   6.4280   6.5259   7.5558   7.6104   7.6528   7.7825
     9.6729   9.7647   9.9306   9.9791  11.8861  12.3991  12.8977  13.5081
    13.8362  14.1408  19.9969  21.5395  25.5784  26.2292  28.2499

     occupation numbers 
     1.0000   1.0000   1.0000   1.0000   1.0000   1.0000   1.0000   1.0000
     1.0000   1.0000   1.0000   1.0000   1.0000   1.0000   1.0000   1.0000
     1.0000   1.0000   1.0000   1.0000   1.0000   1.0000   1.0000   1.0000
     1.0000   1.0000   0.0000   0.0000   0.0000   0.0000   0.0000

          k = 0.0000 0.2887-0.3100 (  1382 PWs)   bands (ev):

  -109.0740-109.0740 -63.3022 -63.3022 -63.2955 -63.2955 -63.2938 -63.2938
    -5.0270  -5.0270   6.4253   6.4253   7.5954   7.5954   7.6902   7.6902
     9.8372   9.8372   9.8490   9.8490  12.3169  12.3169  13.2548  13.2548
    13.8281  13.8281  20.7168  20.7168  26.0034  26.0034  28.3668

     occupation numbers 
     1.0000   1.0000   1.0000   1.0000   1.0000   1.0000   1.0000   1.0000
     1.0000   1.0000   1.0000   1.0000   1.0000   1.0000   1.0000   1.0000
     1.0000   1.0000   1.0000   1.0000   1.0000   1.0000   1.0000   1.0000
     1.0000   1.0000   0.0000   0.0000   0.0000   0.0000   0.0000

          k = 0.0000 0.3849 0.0000 (  1393 PWs)   bands (ev):

  -109.0742-109.0735 -63.3045 -63.3020 -63.3001 -63.2965 -63.2944 -63.2927
    -5.2070  -4.4216   6.4954   7.0256   7.6005   7.6509   8.0953   8.2140
     9.2944   9.7276   9.9467  10.0799  10.7373  11.0998  12.4141  12.5439
    13.9593  14.2885  20.2749  23.5083  24.0756  25.6274  28.4040

     occupation numbers 
     1.0000   1.0000   1.0000   1.0000   1.0000   1.0000   1.0000   1.0000
     1.0000   1.0000   1.0000   1.0000   1.0000   1.0000   1.0000   1.0000
     1.0000   1.0000   1.0000   1.0000   1.0000   1.0000   1.0000   1.0000
     1.0000   1.0000   0.0000   0.0000   0.0000   0.0000   0.0000

          k = 0.0000 0.3849 0.0775 (  1393 PWs)   bands (ev):

  -109.0742-109.0735 -63.3049 -63.3013 -63.3004 -63.2964 -63.2944 -63.2928
    -5.1759  -4.4495   6.4602   6.8925   7.6173   7.6626   8.0475   8.1817
     9.3607   9.7399  10.0528  10.0629  10.7881  11.2071  12.4839  12.4960
    13.9809  14.2228  20.2714  23.0887  24.4682  25.6361  28.3419

     occupation numbers 
     1.0000   1.0000   1.0000   1.0000   1.0000   1.0000   1.0000   1.0000
     1.0000   1.0000   1.0000   1.0000   1.0000   1.0000   1.0000   1.0000
     1.0000   1.0000   1.0000   1.0000   1.0000   1.0000   1.0000   1.0000
     1.0000   1.0000   0.0000   0.0000   0.0000   0.0000   0.0000

          k = 0.0000 0.3849 0.1550 (  1394 PWs)   bands (ev):

  -109.0741-109.0736 -63.3053 -63.3017 -63.2994 -63.2960 -63.2945 -63.2932
    -5.0877  -4.5303   6.3752   6.6326   7.6674   7.6784   7.9483   8.0948
     9.5121   9.7749  10.0180  10.1163  11.0455  11.4953  12.3895  12.7214
    13.9437  14.0343  20.3356  22.4453  25.0017  25.6648  28.1087

     occupation numbers 
     1.0000   1.0000   1.0000   1.0000   1.0000   1.0000   1.0000   1.0000
     1.0000   1.0000   1.0000   1.0000   1.0000   1.0000   1.0000   1.0000
     1.0000   1.0000   1.0000   1.0000   1.0000   1.0000   1.0000   1.0000
     1.0000   1.0000   0.0000   0.0000   0.0000   0.0000   0.0000

          k = 0.0000 0.3849 0.2325 (  1393 PWs)   bands (ev):

  -109.0740-109.0737 -63.3052 -63.3031 -63.2977 -63.2953 -63.2951 -63.2938
    -4.9566  -4.6541   6.2989   6.4135   7.7066   7.7487   7.8464   7.9777
     9.6927   9.8276   9.9571  10.0251  11.3472  11.7127  12.5902  13.0420
    13.6841  13.7482  20.6013  21.7584  25.4295  25.6981  27.9938

     occupation numbers 
     1.0000   1.0000   1.0000   1.0000   1.0000   1.0000   1.0000   1.0000
     1.0000   1.0000   1.0000   1.0000   1.0000   1.0000   1.0000   1.0000
     1.0000   1.0000   1.0000   1.0000   1.0000   1.0000   1.0000   1.0000
     1.0000   1.0000   0.0000   0.0000   0.0000   0.0000   0.0000

          k = 0.0000 0.3849-0.3100 (  1386 PWs)   bands (ev):

  -109.0738-109.0738 -63.3044 -63.3044 -63.2961 -63.2961 -63.2945 -63.2945
    -4.8038  -4.8038   6.2999   6.2999   7.7626   7.7626   7.8560   7.8560
     9.8713   9.8713   9.8908   9.8908  11.5872  11.5872  13.1718  13.1718
    13.4018  13.4018  21.1048  21.1048  25.6547  25.6547  28.2549

     occupation numbers 
     1.0000   1.0000   1.0000   1.0000   1.0000   1.0000   1.0000   1.0000
     1.0000   1.0000   1.0000   1.0000   1.0000   1.0000   1.0000   1.0000
     1.0000   1.0000   1.0000   1.0000   1.0000   1.0000   1.0000   1.0000
     1.0000   1.0000   0.0000   0.0000   0.0000   0.0000   0.0000

          k = 0.0000 0.4811 0.0000 (  1388 PWs)   bands (ev):

  -109.0739-109.0734 -63.3047 -63.3024 -63.3021 -63.2971 -63.2955 -63.2932
    -4.9263  -4.3857   6.4826   6.8282   7.6543   7.8087   8.2835   8.4325
     9.5109   9.8639   9.9731  10.1021  10.4497  10.9945  11.7352  11.9579
    13.5550  14.0119  21.3922  23.1761  23.3276  25.7580  28.0133

     occupation numbers 
     1.0000   1.0000   1.0000   1.0000   1.0000   1.0000   1.0000   1.0000
     1.0000   1.0000   1.0000   1.0000   1.0000   1.0000   1.0000   1.0000
     1.0000   1.0000   1.0000   1.0000   1.0000   1.0000   1.0000   1.0000
     1.0000   1.0000   0.0000   0.0000   0.0000   0.0000   0.0000

          k = 0.0000 0.4811 0.0775 (  1391 PWs)   bands (ev):

  -109.0739-109.0735 -63.3054 -63.3028 -63.3012 -63.2970 -63.2954 -63.2934
    -4.9029  -4.4027   6.4381   6.7311   7.6758   7.8035   8.2297   8.3906
     9.5545   9.8699  10.0845  10.0884  10.4358  11.0576  11.7943  12.0546
    13.5987  13.9422  21.2627  22.7181  23.9050  25.7641  27.9067

     occupation numbers 
     1.0000   1.0000   1.0000   1.0000   1.0000   1.0000   1.0000   1.0000
     1.0000   1.0000   1.0000   1.0000   1.0000   1.0000   1.0000   1.0000
     1.0000   1.0000   1.0000   1.0000   1.0000   1.0000   1.0000   1.0000
     1.0000   1.0000   0.0000   0.0000   0.0000   0.0000   0.0000

          k = 0.0000 0.4811 0.1550 (  1387 PWs)   bands (ev):

  -109.0739-109.0735 -63.3063 -63.3039 -63.2994 -63.2965 -63.2952 -63.2937
    -4.8372  -4.4530   6.3325   6.5195   7.7394   7.8058   8.1151   8.2792
     9.6727   9.8875  10.0432  10.1766  10.5278  11.1134  12.0848  12.3142
    13.6486  13.7421  21.0484  22.2556  24.5627  25.7640  27.7218

     occupation numbers 
     1.0000   1.0000   1.0000   1.0000   1.0000   1.0000   1.0000   1.0000
     1.0000   1.0000   1.0000   1.0000   1.0000   1.0000   1.0000   1.0000
     1.0000   1.0000   1.0000   1.0000   1.0000   1.0000   1.0000   1.0000
     1.0000   1.0000   0.0000   0.0000   0.0000   0.0000   0.0000

          k = 0.0000 0.4811 0.2325 (  1398 PWs)   bands (ev):

  -109.0738-109.0736 -63.3066 -63.3053 -63.2977 -63.2959 -63.2956 -63.2943
    -4.7419  -4.5332   6.2369   6.3250   7.8369   7.8421   7.9979   8.1305
     9.8221   9.9155   9.9961  10.0969  10.7321  11.0498  12.6213  12.6722
    13.4370  13.5377  21.0265  21.7614  25.1098  25.6950  27.7400

     occupation numbers 
     1.0000   1.0000   1.0000   1.0000   1.0000   1.0000   1.0000   1.0000
     1.0000   1.0000   1.0000   1.0000   1.0000   1.0000   1.0000   1.0000
     1.0000   1.0000   1.0000   1.0000   1.0000   1.0000   1.0000   1.0000
     1.0000   1.0000   0.0000   0.0000   0.0000   0.0000   0.0000

          k = 0.0000 0.4811-0.3100 (  1404 PWs)   bands (ev):

  -109.0737-109.0737 -63.3062 -63.3062 -63.2964 -63.2964 -63.2952 -63.2952
    -4.6343  -4.6343   6.2241   6.2241   7.9021   7.9021   7.9770   7.9770
     9.9524   9.9524   9.9693   9.9693  10.9130  10.9130  13.0647  13.0647
    13.1722  13.1722  21.2974  21.2974  25.4869  25.4869  28.1187

     occupation numbers 
     1.0000   1.0000   1.0000   1.0000   1.0000   1.0000   1.0000   1.0000
     1.0000   1.0000   1.0000   1.0000   1.0000   1.0000   1.0000   1.0000
     1.0000   1.0000   1.0000   1.0000   1.0000   1.0000   1.0000   1.0000
     1.0000   1.0000   0.0000   0.0000   0.0000   0.0000   0.0000

          k = 0.0000-0.5774 0.0000 (  1392 PWs)   bands (ev):

  -109.0739-109.0734 -63.3054 -63.3032 -63.3016 -63.2972 -63.2962 -63.2934
    -4.8032  -4.3902   6.6153   6.6170   7.6704   7.8660   8.3080   8.5225
     9.6059   9.9342  10.1122  10.1935  10.3393  10.8867  11.3682  11.7709
    13.3792  13.9042  22.3685  22.4324  23.0688  25.7860  27.8788

     occupation numbers 
     1.0000   1.0000   1.0000   1.0000   1.0000   1.0000   1.0000   1.0000
     1.0000   1.0000   1.0000   1.0000   1.0000   1.0000   1.0000   1.0000
     1.0000   1.0000   1.0000   1.0000   1.0000   1.0000   1.0000   1.0000
     1.0000   1.0000   0.0000   0.0000   0.0000   0.0000   0.0000

          k = 0.0000-0.5774 0.0775 (  1396 PWs)   bands (ev):

  -109.0738-109.0735 -63.3059 -63.3037 -63.3008 -63.2972 -63.2959 -63.2935
    -4.7840  -4.4018   6.5432   6.5576   7.6937   7.8581   8.2630   8.4758
     9.6762   9.9372  10.0937  10.2082  10.3591  10.8108  11.5929  11.8755
    13.4279  13.8330  21.8826  22.3543  23.6360  25.7929  27.7684

     occupation numbers 
     1.0000   1.0000   1.0000   1.0000   1.0000   1.0000   1.0000   1.0000
     1.0000   1.0000   1.0000   1.0000   1.0000   1.0000   1.0000   1.0000
     1.0000   1.0000   1.0000   1.0000   1.0000   1.0000   1.0000   1.0000
     1.0000   1.0000   0.0000   0.0000   0.0000   0.0000   0.0000

          k = 0.0000-0.5774 0.1550 (  1392 PWs)   bands (ev):

  -109.0738-109.0735 -63.3068 -63.3048 -63.2991 -63.2968 -63.2956 -63.2940
    -4.7306  -4.4370   6.3805   6.4177   7.7626   7.8586   8.1606   8.3522
     9.8241   9.9465  10.0541  10.2058  10.4270  10.7149  12.0883  12.1520
    13.5076  13.6285  21.3750  22.1112  24.3922  25.7925  27.5840

     occupation numbers 
     1.0000   1.0000   1.0000   1.0000   1.0000   1.0000   1.0000   1.0000
     1.0000   1.0000   1.0000   1.0000   1.0000   1.0000   1.0000   1.0000
     1.0000   1.0000   1.0000   1.0000   1.0000   1.0000   1.0000   1.0000
     1.0000   1.0000   0.0000   0.0000   0.0000   0.0000   0.0000

          k = 0.0000-0.5774 0.2325 (  1394 PWs)   bands (ev):

  -109.0737-109.0736 -63.3072 -63.3060 -63.2975 -63.2961 -63.2957 -63.2946
    -4.6545  -4.4949   6.2411   6.2732   7.8740   7.8913   8.0502   8.1885
     9.9621   9.9683  10.0152  10.1616  10.5111  10.6447  12.5271  12.6711
    13.3161  13.4625  21.1865  21.7297  25.0126  25.7039  27.6258

     occupation numbers 
     1.0000   1.0000   1.0000   1.0000   1.0000   1.0000   1.0000   1.0000
     1.0000   1.0000   1.0000   1.0000   1.0000   1.0000   1.0000   1.0000
     1.0000   1.0000   1.0000   1.0000   1.0000   1.0000   1.0000   1.0000
     1.0000   1.0000   0.0000   0.0000   0.0000   0.0000   0.0000

          k = 0.0000-0.5774-0.3100 (  1404 PWs)   bands (ev):

  -109.0737-109.0737 -63.3069 -63.3069 -63.2964 -63.2964 -63.2955 -63.2955
    -4.5709  -4.5709   6.2008   6.2008   7.9570   7.9570   8.0207   8.0207
     9.9845   9.9845  10.0819  10.0819  10.5826  10.5826  12.9334  12.9334
    13.1750  13.1750  21.3506  21.3506  25.4484  25.4484  28.0396

     occupation numbers 
     1.0000   1.0000   1.0000   1.0000   1.0000   1.0000   1.0000   1.0000
     1.0000   1.0000   1.0000   1.0000   1.0000   1.0000   1.0000   1.0000
     1.0000   1.0000   1.0000   1.0000   1.0000   1.0000   1.0000   1.0000
     1.0000   1.0000   0.0000   0.0000   0.0000   0.0000   0.0000

          k = 0.0833 0.1443 0.0000 (  1377 PWs)   bands (ev):

  -109.0748-109.0737 -63.3076 -63.2958 -63.2946 -63.2929 -63.2923 -63.2913
    -5.8877  -4.6485   6.7655   7.0282   7.3691   7.4486   7.5091   7.7155
     9.4867   9.5682  10.0301  10.0615  10.4749  13.1894  13.5302  14.3412
    14.8064  14.9990  17.6950  22.6437  24.3156  27.6716  29.5862

     occupation numbers 
     1.0000   1.0000   1.0000   1.0000   1.0000   1.0000   1.0000   1.0000
     1.0000   1.0000   1.0000   1.0000   1.0000   1.0000   1.0000   1.0000
     1.0000   1.0000   1.0000   1.0000   1.0000   1.0000   1.0000   1.0000
     1.0000   1.0000   0.0000   0.0000   0.0000   0.0000   0.0000

          k = 0.0833 0.1443 0.0775 (  1383 PWs)   bands (ev):

  -109.0748-109.0737 -63.3071 -63.2956 -63.2945 -63.2937 -63.2922 -63.2915
    -5.8437  -4.6988   6.7019   6.9942   7.3724   7.4274   7.5164   7.6950
     9.5183   9.5920  10.0185  10.0552  10.6761  13.2392  13.5780  14.1981
    14.7707  14.9456  17.8852  22.3547  24.5303  27.7134  29.5873

     occupation numbers 
     1.0000   1.0000   1.0000   1.0000   1.0000   1.0000   1.0000   1.0000
     1.0000   1.0000   1.0000   1.0000   1.0000   1.0000   1.0000   1.0000
     1.0000   1.0000   1.0000   1.0000   1.0000   1.0000   1.0000   1.0000
     1.0000   1.0000   0.0000   0.0000   0.0000   0.0000   0.0000

          k = 0.0833 0.1443 0.1550 (  1390 PWs)   bands (ev):

  -109.0746-109.0738 -63.3057 -63.2955 -63.2952 -63.2941 -63.2925 -63.2919
    -5.7170  -4.8408   6.5917   6.8876   7.3895   7.3959   7.5099   7.6407
     9.6032   9.6554   9.9821  10.0175  11.2198  13.3849  13.6522  13.9303
    14.5902  14.7932  18.4099  21.6998  25.0033  27.7617  29.2318

     occupation numbers 
     1.0000   1.0000   1.0000   1.0000   1.0000   1.0000   1.0000   1.0000
     1.0000   1.0000   1.0000   1.0000   1.0000   1.0000   1.0000   1.0000
     1.0000   1.0000   1.0000   1.0000   1.0000   1.0000   1.0000   1.0000
     1.0000   1.0000   0.0000   0.0000   0.0000   0.0000   0.0000

          k = 0.0833 0.1443 0.2325 (  1390 PWs)   bands (ev):

  -109.0744-109.0740 -63.3034 -63.2979 -63.2946 -63.2936 -63.2929 -63.2924
    -5.5237  -5.0496   6.5449   6.7337   7.3927   7.4192   7.4842   7.5701
     9.7181   9.7426   9.9200   9.9429  11.9443  13.3007  13.6160  14.0259
    14.2768  14.5648  19.1584  20.8880  25.6275  27.3171  28.7010

     occupation numbers 
     1.0000   1.0000   1.0000   1.0000   1.0000   1.0000   1.0000   1.0000
     1.0000   1.0000   1.0000   1.0000   1.0000   1.0000   1.0000   1.0000
     1.0000   1.0000   1.0000   1.0000   1.0000   1.0000   1.0000   1.0000
     1.0000   1.0000   0.0000   0.0000   0.0000   0.0000   0.0000

          k = 0.0833 0.1443-0.3100 (  1396 PWs)   bands (ev):

  -109.0742-109.0742 -63.3007 -63.3007 -63.2938 -63.2938 -63.2930 -63.2930
    -5.2899  -5.2899   6.5996   6.5996   7.4153   7.4153   7.5041   7.5041
     9.8357   9.8357   9.8390   9.8390  12.6812  12.6812  13.9173  13.9173
    14.2976  14.2976  20.0152  20.0152  26.4188  26.4188  28.9228

     occupation numbers 
     1.0000   1.0000   1.0000   1.0000   1.0000   1.0000   1.0000   1.0000
     1.0000   1.0000   1.0000   1.0000   1.0000   1.0000   1.0000   1.0000
     1.0000   1.0000   1.0000   1.0000   1.0000   1.0000   1.0000   1.0000
     1.0000   1.0000   0.0000   0.0000   0.0000   0.0000   0.0000

          k = 0.0833 0.2406 0.0000 (  1382 PWs)   bands (ev):

  -109.0746-109.0736 -63.3065 -63.2981 -63.2963 -63.2947 -63.2930 -63.2920
    -5.6430  -4.5510   6.7817   7.0060   7.4487   7.5087   7.6091   7.8996
     9.3852   9.5771  10.0460  10.0652  10.5280  12.3644  12.9930  13.6950
    14.5439  14.6947  18.7283  23.6091  24.1385  26.4592  28.7676

     occupation numbers 
     1.0000   1.0000   1.0000   1.0000   1.0000   1.0000   1.0000   1.0000
     1.0000   1.0000   1.0000   1.0000   1.0000   1.0000   1.0000   1.0000
     1.0000   1.0000   1.0000   1.0000   1.0000   1.0000   1.0000   1.0000
     1.0000   1.0000   0.0000   0.0000   0.0000   0.0000   0.0000

          k = 0.0833 0.2406 0.0775 (  1386 PWs)   bands (ev):

  -109.0745-109.0736 -63.3061 -63.2979 -63.2965 -63.2950 -63.2930 -63.2922
    -5.6030  -4.5937   6.7362   6.8973   7.4473   7.5196   7.6173   7.8765
     9.4290   9.6036  10.0322  10.0885  10.7068  12.4193  13.0454  13.6081
    14.5145  14.6347  18.8435  23.0944  24.5439  26.5121  28.8362

     occupation numbers 
     1.0000   1.0000   1.0000   1.0000   1.0000   1.0000   1.0000   1.0000
     1.0000   1.0000   1.0000   1.0000   1.0000   1.0000   1.0000   1.0000
     1.0000   1.0000   1.0000   1.0000   1.0000   1.0000   1.0000   1.0000
     1.0000   1.0000   0.0000   0.0000   0.0000   0.0000   0.0000

          k = 0.0833 0.2406 0.1550 (  1385 PWs)   bands (ev):

  -109.0744-109.0737 -63.3052 -63.2977 -63.2971 -63.2949 -63.2932 -63.2925
    -5.4884  -4.7151   6.6082   6.7233   7.4576   7.5086   7.6260   7.8157
     9.5412   9.6670   9.9902  10.0634  11.2469  12.5800  13.1324  13.4719
    14.3361  14.4638  19.2053  22.2979  25.0668  26.6247  28.8275

     occupation numbers 
     1.0000   1.0000   1.0000   1.0000   1.0000   1.0000   1.0000   1.0000
     1.0000   1.0000   1.0000   1.0000   1.0000   1.0000   1.0000   1.0000
     1.0000   1.0000   1.0000   1.0000   1.0000   1.0000   1.0000   1.0000
     1.0000   1.0000   0.0000   0.0000   0.0000   0.0000   0.0000

          k = 0.0833 0.2406 0.2325 (  1386 PWs)   bands (ev):

  -109.0743-109.0739 -63.3035 -63.2995 -63.2961 -63.2947 -63.2937 -63.2931
    -5.3147  -4.8958   6.4976   6.5799   7.4710   7.5043   7.6279   7.7374
     9.6877   9.7499   9.9236   9.9718  11.9473  12.7976  13.0305  13.6008
    13.9340  14.2066  19.8083  21.4383  25.6043  26.5881  28.4007

     occupation numbers 
     1.0000   1.0000   1.0000   1.0000   1.0000   1.0000   1.0000   1.0000
     1.0000   1.0000   1.0000   1.0000   1.0000   1.0000   1.0000   1.0000
     1.0000   1.0000   1.0000   1.0000   1.0000   1.0000   1.0000   1.0000
     1.0000   1.0000   0.0000   0.0000   0.0000   0.0000   0.0000

          k = 0.0833 0.2406-0.3100 (  1386 PWs)   bands (ev):

  -109.0741-109.0741 -63.3016 -63.3016 -63.2951 -63.2951 -63.2936 -63.2936
    -5.1067  -5.1067   6.4905   6.4905   7.4901   7.4901   7.6657   7.6657
     9.8341   9.8341   9.8451   9.8451  12.5323  12.5323  13.3738  13.3738
    13.9073  13.9073  20.5830  20.5830  26.1694  26.1694  28.4259

     occupation numbers 
     1.0000   1.0000   1.0000   1.0000   1.0000   1.0000   1.0000   1.0000
     1.0000   1.0000   1.0000   1.0000   1.0000   1.0000   1.0000   1.0000
     1.0000   1.0000   1.0000   1.0000   1.0000   1.0000   1.0000   1.0000
     1.0000   1.0000   0.0000   0.0000   0.0000   0.0000   0.0000

          k = 0.0833 0.3368 0.0000 (  1385 PWs)   bands (ev):

  -109.0743-109.0735 -63.3050 -63.3007 -63.2989 -63.2961 -63.2939 -63.2928
    -5.3331  -4.4513   6.6016   7.0716   7.4939   7.6605   7.8957   8.1298
     9.2973   9.6446  10.0111  10.0695  10.6853  11.4699  12.4448  12.9048
    14.1524  14.3330  19.8979  23.6631  24.4851  25.6378  28.2900

     occupation numbers 
     1.0000   1.0000   1.0000   1.0000   1.0000   1.0000   1.0000   1.0000
     1.0000   1.0000   1.0000   1.0000   1.0000   1.0000   1.0000   1.0000
     1.0000   1.0000   1.0000   1.0000   1.0000   1.0000   1.0000   1.0000
     1.0000   1.0000   0.0000   0.0000   0.0000   0.0000   0.0000

          k = 0.0833 0.3368 0.0775 (  1392 PWs)   bands (ev):

  -109.0743-109.0735 -63.3051 -63.3003 -63.2993 -63.2961 -63.2939 -63.2929
    -5.2992  -4.4838   6.5658   6.9354   7.5092   7.6581   7.8769   8.1012
     9.3575   9.6777  10.0516  10.0873  10.7972  11.5430  12.5101  12.8390
    14.1548  14.2688  19.9392  23.2726  24.7834  25.6655  28.4339

     occupation numbers 
     1.0000   1.0000   1.0000   1.0000   1.0000   1.0000   1.0000   1.0000
     1.0000   1.0000   1.0000   1.0000   1.0000   1.0000   1.0000   1.0000
     1.0000   1.0000   1.0000   1.0000   1.0000   1.0000   1.0000   1.0000
     1.0000   1.0000   0.0000   0.0000   0.0000   0.0000   0.0000

          k = 0.0833 0.3368 0.1550 (  1393 PWs)   bands (ev):

  -109.0742-109.0736 -63.3050 -63.3005 -63.2989 -63.2959 -63.2941 -63.2933
    -5.2025  -4.5770   6.4761   6.6806   7.5403   7.6479   7.8351   8.0262
     9.5001   9.7360  10.0093  10.1120  11.2131  11.7641  12.5813  12.8128
    14.0448  14.1045  20.1130  22.5810  25.2161  25.7486  28.3393

     occupation numbers 
     1.0000   1.0000   1.0000   1.0000   1.0000   1.0000   1.0000   1.0000
     1.0000   1.0000   1.0000   1.0000   1.0000   1.0000   1.0000   1.0000
     1.0000   1.0000   1.0000   1.0000   1.0000   1.0000   1.0000   1.0000
     1.0000   1.0000   0.0000   0.0000   0.0000   0.0000   0.0000

          k = 0.0833 0.3368 0.2325 (  1399 PWs)   bands (ev):

  -109.0741-109.0738 -63.3045 -63.3020 -63.2974 -63.2957 -63.2946 -63.2938
    -5.0577  -4.7185   6.3892   6.4764   7.5766   7.6393   7.8088   7.9302
     9.6762   9.8020   9.9479  10.0134  11.6600  12.0611  12.6079  13.0707
    13.7412  13.8119  20.5002  21.8268  25.5710  25.8407  28.0857

     occupation numbers 
     1.0000   1.0000   1.0000   1.0000   1.0000   1.0000   1.0000   1.0000
     1.0000   1.0000   1.0000   1.0000   1.0000   1.0000   1.0000   1.0000
     1.0000   1.0000   1.0000   1.0000   1.0000   1.0000   1.0000   1.0000
     1.0000   1.0000   0.0000   0.0000   0.0000   0.0000   0.0000

          k = 0.0833 0.3368-0.3100 (  1392 PWs)   bands (ev):

  -109.0739-109.0739 -63.3034 -63.3034 -63.2961 -63.2961 -63.2944 -63.2944
    -4.8874  -4.8874   6.3775   6.3775   7.6138   7.6138   7.8449   7.8449
     9.8458   9.8458   9.8859   9.8859  11.9498  11.9498  13.1247  13.1247
    13.4873  13.4873  21.0999  21.0999  25.7972  25.7972  28.1955

     occupation numbers 
     1.0000   1.0000   1.0000   1.0000   1.0000   1.0000   1.0000   1.0000
     1.0000   1.0000   1.0000   1.0000   1.0000   1.0000   1.0000   1.0000
     1.0000   1.0000   1.0000   1.0000   1.0000   1.0000   1.0000   1.0000
     1.0000   1.0000   0.0000   0.0000   0.0000   0.0000   0.0000

          k = 0.0833 0.4330 0.0000 (  1390 PWs)   bands (ev):

  -109.0740-109.0734 -63.3041 -63.3025 -63.3012 -63.2971 -63.2952 -63.2935
    -5.0251  -4.3909   6.5313   6.9672   7.5796   7.7764   8.2178   8.3504
     9.3722   9.7111  10.0329  10.0974  10.6488  11.0041  11.8703  12.1500
    13.6854  14.0064  21.0738  23.2932  23.9988  25.7144  28.1810

     occupation numbers 
     1.0000   1.0000   1.0000   1.0000   1.0000   1.0000   1.0000   1.0000
     1.0000   1.0000   1.0000   1.0000   1.0000   1.0000   1.0000   1.0000
     1.0000   1.0000   1.0000   1.0000   1.0000   1.0000   1.0000   1.0000
     1.0000   1.0000   0.0000   0.0000   0.0000   0.0000   0.0000

          k = 0.0833 0.4330 0.0775 (  1388 PWs)   bands (ev):

  -109.0740-109.0735 -63.3049 -63.3019 -63.3011 -63.2970 -63.2950 -63.2936
    -4.9988  -4.4120   6.4918   6.8560   7.5932   7.7682   8.1620   8.3135
     9.4233   9.7784  10.0793  10.1165  10.6250  11.1416  11.9218  12.1671
    13.7132  13.9436  21.0209  23.0076  24.3096  25.7202  28.0562

     occupation numbers 
     1.0000   1.0000   1.0000   1.0000   1.0000   1.0000   1.0000   1.0000
     1.0000   1.0000   1.0000   1.0000   1.0000   1.0000   1.0000   1.0000
     1.0000   1.0000   1.0000   1.0000   1.0000   1.0000   1.0000   1.0000
     1.0000   1.0000   0.0000   0.0000   0.0000   0.0000   0.0000

          k = 0.0833 0.4330 0.1550 (  1393 PWs)   bands (ev):

  -109.0739-109.0735 -63.3056 -63.3030 -63.2994 -63.2967 -63.2950 -63.2939
    -4.9244  -4.4738   6.3967   6.6194   7.6344   7.7573   8.0608   8.2176
     9.5571   9.8455  10.0429  10.1800  10.7465  11.3805  12.0624  12.3413
    13.6577  13.8161  20.9617  22.5179  24.8045  25.7253  27.8077

     occupation numbers 
     1.0000   1.0000   1.0000   1.0000   1.0000   1.0000   1.0000   1.0000
     1.0000   1.0000   1.0000   1.0000   1.0000   1.0000   1.0000   1.0000
     1.0000   1.0000   1.0000   1.0000   1.0000   1.0000   1.0000   1.0000
     1.0000   1.0000   0.0000   0.0000   0.0000   0.0000   0.0000

          k = 0.0833 0.4330 0.2325 (  1400 PWs)   bands (ev):

  -109.0739-109.0736 -63.3058 -63.3043 -63.2978 -63.2962 -63.2953 -63.2944
    -4.8152  -4.5705   6.3095   6.4089   7.6924   7.7582   7.9884   8.0977
     9.7250   9.8872   9.9991  10.0871  10.9957  11.3862  12.4911  12.6875
    13.3864  13.6287  21.0771  21.9663  25.2391  25.6857  27.7203

     occupation numbers 
     1.0000   1.0000   1.0000   1.0000   1.0000   1.0000   1.0000   1.0000
     1.0000   1.0000   1.0000   1.0000   1.0000   1.0000   1.0000   1.0000
     1.0000   1.0000   1.0000   1.0000   1.0000   1.0000   1.0000   1.0000
     1.0000   1.0000   0.0000   0.0000   0.0000   0.0000   0.0000

          k = 0.0833 0.4330-0.3100 (  1402 PWs)   bands (ev):

  -109.0738-109.0738 -63.3053 -63.3053 -63.2966 -63.2966 -63.2950 -63.2950
    -4.6903  -4.6903   6.3014   6.3014   7.7426   7.7426   8.0012   8.0012
     9.8726   9.8726   9.9854   9.9854  11.2217  11.2217  12.9223  12.9223
    13.2597  13.2597  21.4397  21.4397  25.5362  25.5362  27.9747

     occupation numbers 
     1.0000   1.0000   1.0000   1.0000   1.0000   1.0000   1.0000   1.0000
     1.0000   1.0000   1.0000   1.0000   1.0000   1.0000   1.0000   1.0000
     1.0000   1.0000   1.0000   1.0000   1.0000   1.0000   1.0000   1.0000
     1.0000   1.0000   0.0000   0.0000   0.0000   0.0000   0.0000

          k = 0.0833 0.5292 0.0000 (  1392 PWs)   bands (ev):

  -109.0738-109.0735 -63.3049 -63.3028 -63.3016 -63.2977 -63.2961 -63.2938
    -4.8100  -4.3870   6.6055   6.7874   7.6295   7.8370   8.3241   8.5155
     9.5773   9.7750  10.1161  10.1748  10.4110  10.9978  11.2564  11.8207
    13.3188  13.8074  22.1582  23.0568  23.1278  25.7812  27.9070

     occupation numbers 
     1.0000   1.0000   1.0000   1.0000   1.0000   1.0000   1.0000   1.0000
     1.0000   1.0000   1.0000   1.0000   1.0000   1.0000   1.0000   1.0000
     1.0000   1.0000   1.0000   1.0000   1.0000   1.0000   1.0000   1.0000
     1.0000   1.0000   0.0000   0.0000   0.0000   0.0000   0.0000

          k = 0.0833 0.5292 0.0775 (  1392 PWs)   bands (ev):

  -109.0738-109.0735 -63.3056 -63.3033 -63.3008 -63.2976 -63.2959 -63.2939
    -4.7905  -4.3991   6.5524   6.7052   7.6441   7.8279   8.2787   8.4655
     9.6257   9.8244  10.1019  10.2136  10.3998  10.9519  11.4331  11.9341
    13.3575  13.7452  21.9019  22.7072  23.7344  25.7908  27.7596

     occupation numbers 
     1.0000   1.0000   1.0000   1.0000   1.0000   1.0000   1.0000   1.0000
     1.0000   1.0000   1.0000   1.0000   1.0000   1.0000   1.0000   1.0000
     1.0000   1.0000   1.0000   1.0000   1.0000   1.0000   1.0000   1.0000
     1.0000   1.0000   0.0000   0.0000   0.0000   0.0000   0.0000

          k = 0.0833 0.5292 0.1550 (  1396 PWs)   bands (ev):

  -109.0738-109.0735 -63.3064 -63.3044 -63.2992 -63.2971 -63.2958 -63.2942
    -4.7362  -4.4354   6.4246   6.5220   7.6903   7.8194   8.1852   8.3438
     9.7357   9.8902  10.0793  10.2611  10.4267  10.8789  11.8303  12.2603
    13.3555  13.6185  21.5287  22.3930  24.4233  25.7944  27.4964

     occupation numbers 
     1.0000   1.0000   1.0000   1.0000   1.0000   1.0000   1.0000   1.0000
     1.0000   1.0000   1.0000   1.0000   1.0000   1.0000   1.0000   1.0000
     1.0000   1.0000   1.0000   1.0000   1.0000   1.0000   1.0000   1.0000
     1.0000   1.0000   0.0000   0.0000   0.0000   0.0000   0.0000

          k = 0.0833 0.5292 0.2325 (  1400 PWs)   bands (ev):

  -109.0737-109.0736 -63.3068 -63.3057 -63.2978 -63.2964 -63.2960 -63.2947
    -4.6586  -4.4951   6.3038   6.3522   7.7610   7.8247   8.1081   8.2027
     9.8433   9.9174  10.0824  10.2098  10.5526  10.7906  12.2831  12.7362
    13.1126  13.5055  21.4017  21.9876  25.0072  25.7012  27.4532

     occupation numbers 
     1.0000   1.0000   1.0000   1.0000   1.0000   1.0000   1.0000   1.0000
     1.0000   1.0000   1.0000   1.0000   1.0000   1.0000   1.0000   1.0000
     1.0000   1.0000   1.0000   1.0000   1.0000   1.0000   1.0000   1.0000
     1.0000   1.0000   0.0000   0.0000   0.0000   0.0000   0.0000

          k = 0.0833 0.5292-0.3100 (  1404 PWs)   bands (ev):

  -109.0737-109.0737 -63.3065 -63.3065 -63.2969 -63.2969 -63.2953 -63.2953
    -4.5731  -4.5731   6.2704   6.2704   7.8177   7.8177   8.1045   8.1045
     9.9046   9.9046  10.1337  10.1337  10.6819  10.6819  12.7127  12.7127
    13.2222  13.2222  21.5928  21.5928  25.4363  25.4363  27.7798

     occupation numbers 
     1.0000   1.0000   1.0000   1.0000   1.0000   1.0000   1.0000   1.0000
     1.0000   1.0000   1.0000   1.0000   1.0000   1.0000   1.0000   1.0000
     1.0000   1.0000   1.0000   1.0000   1.0000   1.0000   1.0000   1.0000
     1.0000   1.0000   0.0000   0.0000   0.0000   0.0000   0.0000

          k = 0.1667 0.2887 0.0000 (  1394 PWs)   bands (ev):

  -109.0743-109.0735 -63.3052 -63.2999 -63.2989 -63.2959 -63.2937 -63.2931
    -5.3782  -4.4634   6.7201   6.9918   7.5943   7.6025   7.7530   8.1077
     9.3298   9.5964  10.0459  10.0621  10.6682  11.7399  12.2712  13.0688
    14.2411  14.2783  19.8077  23.7157  24.7843  25.7155  27.9125

     occupation numbers 
     1.0000   1.0000   1.0000   1.0000   1.0000   1.0000   1.0000   1.0000
     1.0000   1.0000   1.0000   1.0000   1.0000   1.0000   1.0000   1.0000
     1.0000   1.0000   1.0000   1.0000   1.0000   1.0000   1.0000   1.0000
     1.0000   1.0000   0.0000   0.0000   0.0000   0.0000   0.0000

          k = 0.1667 0.2887 0.0775 (  1389 PWs)   bands (ev):

  -109.0743-109.0735 -63.3052 -63.2994 -63.2991 -63.2960 -63.2937 -63.2932
    -5.3433  -4.4974   6.6833   6.8832   7.5600   7.5759   7.7849   8.0810
     9.3799   9.6446  10.0470  10.1065  10.7953  11.8092  12.3323  13.0009
    14.2085  14.2387  19.8687  23.3669  24.9829  25.7683  28.1234

     occupation numbers 
     1.0000   1.0000   1.0000   1.0000   1.0000   1.0000   1.0000   1.0000
     1.0000   1.0000   1.0000   1.0000   1.0000   1.0000   1.0000   1.0000
     1.0000   1.0000   1.0000   1.0000   1.0000   1.0000   1.0000   1.0000
     1.0000   1.0000   0.0000   0.0000   0.0000   0.0000   0.0000

          k = 0.1667 0.2887 0.1550 (  1398 PWs)   bands (ev):

  -109.0742-109.0736 -63.3049 -63.3001 -63.2984 -63.2962 -63.2938 -63.2936
    -5.2437  -4.5949   6.5873   6.6597   7.5349   7.5437   7.8005   8.0114
     9.5098   9.7203  10.0054  10.1166  11.2546  12.0263  12.4507  12.8930
    14.0121  14.1363  20.0894  22.6775  25.2992  25.8939  28.5258

     occupation numbers 
     1.0000   1.0000   1.0000   1.0000   1.0000   1.0000   1.0000   1.0000
     1.0000   1.0000   1.0000   1.0000   1.0000   1.0000   1.0000   1.0000
     1.0000   1.0000   1.0000   1.0000   1.0000   1.0000   1.0000   1.0000
     1.0000   1.0000   0.0000   0.0000   0.0000   0.0000   0.0000

          k = 0.1667 0.2887 0.2325 (  1388 PWs)   bands (ev):

  -109.0741-109.0738 -63.3041 -63.3015 -63.2970 -63.2960 -63.2941 -63.2941
    -5.0943  -4.7425   6.4798   6.4849   7.5279   7.5339   7.8089   7.9242
     9.6791   9.7941   9.9453  10.0150  11.7879  12.3821  12.4737  13.0026
    13.7278  13.8068  20.5247  21.9067  25.6114  25.9816  28.1985

     occupation numbers 
     1.0000   1.0000   1.0000   1.0000   1.0000   1.0000   1.0000   1.0000
     1.0000   1.0000   1.0000   1.0000   1.0000   1.0000   1.0000   1.0000
     1.0000   1.0000   1.0000   1.0000   1.0000   1.0000   1.0000   1.0000
     1.0000   1.0000   0.0000   0.0000   0.0000   0.0000   0.0000

          k = 0.1667 0.2887-0.3100 (  1388 PWs)   bands (ev):

  -109.0739-109.0739 -63.3029 -63.3029 -63.2961 -63.2961 -63.2943 -63.2943
    -4.9180  -4.9180   6.4280   6.4280   7.5302   7.5302   7.8489   7.8489
     9.8418   9.8418   9.8871   9.8871  12.1390  12.1390  13.0619  13.0619
    13.4700  13.4700  21.1581  21.1581  25.8804  25.8804  28.1160

     occupation numbers 
     1.0000   1.0000   1.0000   1.0000   1.0000   1.0000   1.0000   1.0000
     1.0000   1.0000   1.0000   1.0000   1.0000   1.0000   1.0000   1.0000
     1.0000   1.0000   1.0000   1.0000   1.0000   1.0000   1.0000   1.0000
     1.0000   1.0000   0.0000   0.0000   0.0000   0.0000   0.0000

          k = 0.1667 0.3849 0.0000 (  1389 PWs)   bands (ev):

  -109.0741-109.0735 -63.3038 -63.3016 -63.3008 -63.2973 -63.2949 -63.2942
    -5.0819  -4.3962   6.6824   7.0006   7.5894   7.7466   8.0608   8.3137
     9.3053   9.6314  10.0886  10.0982  10.7771  11.1677  11.6386  12.3290
    13.7793  13.8828  21.0251  23.3555  24.9284  25.6415  27.8132

     occupation numbers 
     1.0000   1.0000   1.0000   1.0000   1.0000   1.0000   1.0000   1.0000
     1.0000   1.0000   1.0000   1.0000   1.0000   1.0000   1.0000   1.0000
     1.0000   1.0000   1.0000   1.0000   1.0000   1.0000   1.0000   1.0000
     1.0000   1.0000   0.0000   0.0000   0.0000   0.0000   0.0000

          k = 0.1667 0.3849 0.0775 (  1395 PWs)   bands (ev):

  -109.0741-109.0735 -63.3044 -63.3014 -63.3005 -63.2974 -63.2947 -63.2943
    -5.0539  -4.4196   6.6414   6.9105   7.5691   7.7049   8.0377   8.2804
     9.3617   9.7261  10.0791  10.1621  10.7710  11.3160  11.7178  12.2796
    13.7377  13.8775  21.0270  23.1915  25.0142  25.6465  27.9899

     occupation numbers 
     1.0000   1.0000   1.0000   1.0000   1.0000   1.0000   1.0000   1.0000
     1.0000   1.0000   1.0000   1.0000   1.0000   1.0000   1.0000   1.0000
     1.0000   1.0000   1.0000   1.0000   1.0000   1.0000   1.0000   1.0000
     1.0000   1.0000   0.0000   0.0000   0.0000   0.0000   0.0000

          k = 0.1667 0.3849 0.1550 (  1400 PWs)   bands (ev):

  -109.0740-109.0736 -63.3050 -63.3023 -63.2991 -63.2975 -63.2949 -63.2942
    -4.9748  -4.4878   6.5396   6.6961   7.5517   7.6453   8.0027   8.1956
     9.5044   9.8271  10.0472  10.2037  10.9496  11.6567  11.9157  12.2267
    13.5429  13.8608  21.0856  22.7815  25.2082  25.6593  27.9256

     occupation numbers 
     1.0000   1.0000   1.0000   1.0000   1.0000   1.0000   1.0000   1.0000
     1.0000   1.0000   1.0000   1.0000   1.0000   1.0000   1.0000   1.0000
     1.0000   1.0000   1.0000   1.0000   1.0000   1.0000   1.0000   1.0000
     1.0000   1.0000   0.0000   0.0000   0.0000   0.0000   0.0000

          k = 0.1667 0.3849 0.2325 (  1391 PWs)   bands (ev):

  -109.0739-109.0736 -63.3050 -63.3034 -63.2977 -63.2970 -63.2951 -63.2944
    -4.8581  -4.5937   6.4380   6.4997   7.5634   7.6091   7.9882   8.0953
     9.6839   9.8748  10.0116  10.0981  11.2507  11.7125  12.3286  12.4542
    13.2724  13.6703  21.3032  22.2510  25.4210  25.6557  27.6810

     occupation numbers 
     1.0000   1.0000   1.0000   1.0000   1.0000   1.0000   1.0000   1.0000
     1.0000   1.0000   1.0000   1.0000   1.0000   1.0000   1.0000   1.0000
     1.0000   1.0000   1.0000   1.0000   1.0000   1.0000   1.0000   1.0000
     1.0000   1.0000   0.0000   0.0000   0.0000   0.0000   0.0000

          k = 0.1667 0.3849-0.3100 (  1392 PWs)   bands (ev):

  -109.0738-109.0738 -63.3045 -63.3045 -63.2970 -63.2970 -63.2949 -63.2949
    -4.7236  -4.7236   6.4103   6.4103   7.5856   7.5856   8.0179   8.0179
     9.8444   9.8444  10.0001  10.0001  11.5143  11.5143  12.6464  12.6464
    13.2931  13.2931  21.7168  21.7168  25.5838  25.5838  27.6899

     occupation numbers 
     1.0000   1.0000   1.0000   1.0000   1.0000   1.0000   1.0000   1.0000
     1.0000   1.0000   1.0000   1.0000   1.0000   1.0000   1.0000   1.0000
     1.0000   1.0000   1.0000   1.0000   1.0000   1.0000   1.0000   1.0000
     1.0000   1.0000   0.0000   0.0000   0.0000   0.0000   0.0000

          k = 0.1667 0.4811 0.0000 (  1390 PWs)   bands (ev):

  -109.0738-109.0735 -63.3039 -63.3022 -63.3014 -63.2985 -63.2961 -63.2949
    -4.8234  -4.3810   6.7377   6.9991   7.5696   7.7934   8.3344   8.4792
     9.4308   9.6009  10.1197  10.1376  10.5425  11.0052  11.2527  11.8508
[...]
    -4.8298  -4.3782   6.9024   6.9724   7.6602   7.7372   8.2979   8.4538
     9.3171   9.5636  10.1165  10.1233  10.6737  10.8127  11.4483  11.7716
    13.3154  13.4012  22.2846  23.0143  24.8033  25.7207  28.0845

     occupation numbers 
     1.0000   1.0000   1.0000   1.0000   1.0000   1.0000   1.0000   1.0000
     1.0000   1.0000   1.0000   1.0000   1.0000   1.0000   1.0000   1.0000
     1.0000   1.0000   1.0000   1.0000   1.0000   1.0000   1.0000   1.0000
     1.0000   1.0000   0.0000   0.0000   0.0000   0.0000   0.0000

          k = 0.2500 0.4330 0.0775 (  1391 PWs)   bands (ev):

  -109.0738-109.0735 -63.3039 -63.3026 -63.3001 -63.2991 -63.2958 -63.2956
    -4.8094  -4.3915   6.8459   6.9268   7.6420   7.6424   8.2566   8.4146
     9.3731   9.7115  10.1131  10.1849  10.6075  10.9137  11.5994  11.7294
    13.2385  13.4578  22.2542  22.9812  24.8322  25.7386  27.7712

     occupation numbers 
     1.0000   1.0000   1.0000   1.0000   1.0000   1.0000   1.0000   1.0000
     1.0000   1.0000   1.0000   1.0000   1.0000   1.0000   1.0000   1.0000
     1.0000   1.0000   1.0000   1.0000   1.0000   1.0000   1.0000   1.0000
     1.0000   1.0000   0.0000   0.0000   0.0000   0.0000   0.0000

          k = 0.2500 0.4330 0.1550 (  1388 PWs)   bands (ev):

  -109.0738-109.0735 -63.3049 -63.3034 -63.2992 -63.2985 -63.2960 -63.2950
    -4.7524  -4.4313   6.7107   6.7817   7.5153   7.6025   8.2059   8.3252
     9.5090   9.8466  10.1076  10.4049  10.5212  11.1341  11.6547  11.9657
    13.0476  13.5478  22.2075  22.8681  24.9178  25.7347  27.2426

     occupation numbers 
     1.0000   1.0000   1.0000   1.0000   1.0000   1.0000   1.0000   1.0000
     1.0000   1.0000   1.0000   1.0000   1.0000   1.0000   1.0000   1.0000
     1.0000   1.0000   1.0000   1.0000   1.0000   1.0000   1.0000   1.0000
     1.0000   1.0000   0.0000   0.0000   0.0000   0.0000   0.0000

          k = 0.2500 0.4330 0.2325 (  1391 PWs)   bands (ev):

  -109.0737-109.0736 -63.3054 -63.3044 -63.2989 -63.2978 -63.2958 -63.2947
    -4.6705  -4.4961   6.5800   6.6124   7.4849   7.5574   8.1793   8.2375
     9.6646   9.8524  10.1320  10.3122  10.8010  11.2169  11.7528  12.2508
    12.9635  13.5122  22.2431  22.6627  25.0661  25.5717  26.9638

     occupation numbers 
     1.0000   1.0000   1.0000   1.0000   1.0000   1.0000   1.0000   1.0000
     1.0000   1.0000   1.0000   1.0000   1.0000   1.0000   1.0000   1.0000
     1.0000   1.0000   1.0000   1.0000   1.0000   1.0000   1.0000   1.0000
     1.0000   1.0000   0.0000   0.0000   0.0000   0.0000   0.0000

          k = 0.2500 0.4330-0.3100 (  1406 PWs)   bands (ev):

  -109.0737-109.0737 -63.3052 -63.3052 -63.2983 -63.2983 -63.2952 -63.2952
    -4.5797  -4.5797   6.5345   6.5345   7.5125   7.5125   8.1865   8.1865
     9.7886   9.7886  10.1996  10.1996  11.0592  11.0592  12.0597  12.0597
    13.2627  13.2627  22.4159  22.4159  25.2937  25.2937  27.0455

     occupation numbers 
     1.0000   1.0000   1.0000   1.0000   1.0000   1.0000   1.0000   1.0000
     1.0000   1.0000   1.0000   1.0000   1.0000   1.0000   1.0000   1.0000
     1.0000   1.0000   1.0000   1.0000   1.0000   1.0000   1.0000   1.0000
     1.0000   1.0000   0.0000   0.0000   0.0000   0.0000   0.0000

          k = 0.2500 0.5292 0.0000 (  1394 PWs)   bands (ev):

  -109.0737-109.0735 -63.3033 -63.3020 -63.3005 -63.2999 -63.2973 -63.2967
    -4.6382  -4.4120   6.9640   7.2267   7.5729   7.7269   8.4600   8.5644
     9.4334   9.5155   9.8433   9.9209  10.4005  10.9384  11.2966  11.9748
    12.7734  13.0908  22.7842  23.4554  24.3642  25.4950  27.8597

     occupation numbers 
     1.0000   1.0000   1.0000   1.0000   1.0000   1.0000   1.0000   1.0000
     1.0000   1.0000   1.0000   1.0000   1.0000   1.0000   1.0000   1.0000
     1.0000   1.0000   1.0000   1.0000   1.0000   1.0000   1.0000   1.0000
     1.0000   1.0000   0.0000   0.0000   0.0000   0.0000   0.0000

          k = 0.2500 0.5292 0.0775 (  1397 PWs)   bands (ev):

  -109.0737-109.0735 -63.3038 -63.3027 -63.3008 -63.2989 -63.2972 -63.2964
    -4.6255  -4.4161   6.9434   7.1425   7.4988   7.6804   8.4265   8.5087
     9.4511   9.6658   9.8984   9.9677  10.4937  10.8930  11.2622  12.0944
    12.7511  13.1194  22.7917  23.4325  24.3878  25.4933  27.5256

     occupation numbers 
     1.0000   1.0000   1.0000   1.0000   1.0000   1.0000   1.0000   1.0000
     1.0000   1.0000   1.0000   1.0000   1.0000   1.0000   1.0000   1.0000
     1.0000   1.0000   1.0000   1.0000   1.0000   1.0000   1.0000   1.0000
     1.0000   1.0000   0.0000   0.0000   0.0000   0.0000   0.0000

          k = 0.2500 0.5292 0.1550 (  1392 PWs)   bands (ev):

  -109.0737-109.0735 -63.3048 -63.3038 -63.3007 -63.2979 -63.2969 -63.2955
    -4.5909  -4.4300   6.8568   6.9460   7.3782   7.5969   8.3762   8.4235
     9.5244   9.7367  10.0897  10.1669  10.6617  10.8476  11.2004  12.2917
    12.6930  13.2469  22.8007  23.3536  24.4772  25.4496  26.9162

     occupation numbers 
     1.0000   1.0000   1.0000   1.0000   1.0000   1.0000   1.0000   1.0000
     1.0000   1.0000   1.0000   1.0000   1.0000   1.0000   1.0000   1.0000
     1.0000   1.0000   1.0000   1.0000   1.0000   1.0000   1.0000   1.0000
     1.0000   1.0000   0.0000   0.0000   0.0000   0.0000   0.0000

          k = 0.2500 0.5292 0.2325 (  1393 PWs)   bands (ev):

  -109.0736-109.0736 -63.3055 -63.3048 -63.3001 -63.2984 -63.2958 -63.2951
    -4.5438  -4.4564   6.7298   6.7581   7.3591   7.5034   8.3455   8.3653
     9.5997   9.7127  10.2582  10.4647  10.5857  10.8723  11.3414  12.0886
    12.9640  13.3435  22.8397  23.1882  24.6609  25.2502  26.5887

     occupation numbers 
     1.0000   1.0000   1.0000   1.0000   1.0000   1.0000   1.0000   1.0000
     1.0000   1.0000   1.0000   1.0000   1.0000   1.0000   1.0000   1.0000
     1.0000   1.0000   1.0000   1.0000   1.0000   1.0000   1.0000   1.0000
     1.0000   1.0000   0.0000   0.0000   0.0000   0.0000   0.0000

          k = 0.2500 0.5292-0.3100 (  1396 PWs)   bands (ev):

  -109.0736-109.0736 -63.3055 -63.3055 -63.2992 -63.2992 -63.2951 -63.2951
    -4.4958  -4.4958   6.6778   6.6778   7.4155   7.4155   8.3405   8.3405
     9.6635   9.6635  10.4278  10.4278  10.7122  10.7122  11.7107  11.7107
    13.2533  13.2533  22.9782  22.9782  24.9348  24.9348  26.6709

     occupation numbers 
     1.0000   1.0000   1.0000   1.0000   1.0000   1.0000   1.0000   1.0000
     1.0000   1.0000   1.0000   1.0000   1.0000   1.0000   1.0000   1.0000
     1.0000   1.0000   1.0000   1.0000   1.0000   1.0000   1.0000   1.0000
     1.0000   1.0000   0.0000   0.0000   0.0000   0.0000   0.0000

          k = 0.3333 0.5774 0.0000 (  1398 PWs)   bands (ev):

  -109.0736-109.0736 -63.3023 -63.3016 -63.3016 -63.2988 -63.2988 -63.2976
    -4.4970  -4.4970   7.0237   7.5705   7.5705   7.5821   8.5435   8.5435
     9.3773   9.5732   9.5732   9.6833  10.3998  11.1609  11.1609  12.5010
    12.5010  12.5753  22.6843  24.1105  24.8228  24.8228  27.8355

     occupation numbers 
     1.0000   1.0000   1.0000   1.0000   1.0000   1.0000   1.0000   1.0000
     1.0000   1.0000   1.0000   1.0000   1.0000   1.0000   1.0000   1.0000
     1.0000   1.0000   1.0000   1.0000   1.0000   1.0000   1.0000   1.0000
     1.0000   1.0000   0.0000   0.0000   0.0000   0.0000   0.0000

          k = 0.3333 0.5774 0.0775 (  1395 PWs)   bands (ev):

  -109.0736-109.0736 -63.3026 -63.3026 -63.3021 -63.2978 -63.2978 -63.2978
    -4.4925  -4.4925   7.0382   7.4431   7.4431   7.5494   8.5133   8.5133
     9.3917   9.6729   9.7307   9.7307  10.4789  11.1125  11.1125  12.4803
    12.6116  12.6116  22.7799  24.0849  24.7794  24.7794  27.5604

     occupation numbers 
     1.0000   1.0000   1.0000   1.0000   1.0000   1.0000   1.0000   1.0000
     1.0000   1.0000   1.0000   1.0000   1.0000   1.0000   1.0000   1.0000
     1.0000   1.0000   1.0000   1.0000   1.0000   1.0000   1.0000   1.0000
     1.0000   1.0000   0.0000   0.0000   0.0000   0.0000   0.0000

          k = 0.3333 0.5774 0.1550 (  1392 PWs)   bands (ev):

  -109.0736-109.0736 -63.3039 -63.3039 -63.3016 -63.2983 -63.2964 -63.2964
    -4.4816  -4.4816   7.0813   7.1782   7.1782   7.4645   8.4728   8.4728
     9.4301   9.6428  10.0474  10.0474  10.7025  10.9930  10.9930  12.2191
    12.8756  12.8756  23.0284  24.0037  24.6508  24.6508  27.0272

     occupation numbers 
     1.0000   1.0000   1.0000   1.0000   1.0000   1.0000   1.0000   1.0000
     1.0000   1.0000   1.0000   1.0000   1.0000   1.0000   1.0000   1.0000
     1.0000   1.0000   1.0000   1.0000   1.0000   1.0000   1.0000   1.0000
     1.0000   1.0000   0.0000   0.0000   0.0000   0.0000   0.0000

          k = 0.3333 0.5774 0.2325 (  1392 PWs)   bands (ev):

  -109.0736-109.0736 -63.3049 -63.3049 -63.3009 -63.2991 -63.2954 -63.2954
    -4.4706  -4.4706   6.9542   6.9542   7.1516   7.3550   8.4490   8.4490
     9.4829   9.5970  10.3533  10.3533  10.8339  10.8339  11.0360  11.8489
    13.1410  13.1410  23.3411  23.8560  24.4808  24.4808  26.6222

     occupation numbers 
     1.0000   1.0000   1.0000   1.0000   1.0000   1.0000   1.0000   1.0000
     1.0000   1.0000   1.0000   1.0000   1.0000   1.0000   1.0000   1.0000
     1.0000   1.0000   1.0000   1.0000   1.0000   1.0000   1.0000   1.0000
     1.0000   1.0000   0.0000   0.0000   0.0000   0.0000   0.0000

          k = 0.3333 0.5774-0.3100 (  1398 PWs)   bands (ev):

  -109.0736-109.0736 -63.3053 -63.3053 -63.3000 -63.3000 -63.2951 -63.2951
    -4.4661  -4.4661   6.8700   6.8700   7.2456   7.2456   8.4412   8.4412
     9.5413   9.5413  10.5509  10.5509  10.6878  10.6878  11.4350  11.4350
    13.2523  13.2523  23.6323  23.6323  24.3962  24.3962  26.4841

     occupation numbers 
     1.0000   1.0000   1.0000   1.0000   1.0000   1.0000   1.0000   1.0000
     1.0000   1.0000   1.0000   1.0000   1.0000   1.0000   1.0000   1.0000
     1.0000   1.0000   1.0000   1.0000   1.0000   1.0000   1.0000   1.0000
     1.0000   1.0000   0.0000   0.0000   0.0000   0.0000   0.0000

     the Fermi energy is    16.0064 ev

!    total energy              =   -1006.31765910 Ry
     estimated scf accuracy    <          3.0E-09 Ry
     smearing contrib. (-TS)   =       0.00000000 Ry
     internal energy E=F+TS    =   -1006.31765910 Ry

     The total energy is F=E-TS. E is the sum of the following terms:
     one-electron contribution =    -709.29987654 Ry
     hartree contribution      =     386.94440549 Ry
     xc contribution           =    -100.32793492 Ry
     ewald contribution        =    -564.63390055 Ry
     one-center paw contrib.   =     -19.00035258 Ry
      -> PAW hartree energy AE =      57.99259792 Ry
      -> PAW hartree energy PS =     -57.70612544 Ry
      -> PAW xc energy AE      =     -34.23374982 Ry
      -> PAW xc energy PS      =      14.94692476 Ry
      -> total E_H with PAW    =     387.23087797 Ry
      -> total E_XC with PAW   =    -119.61475998 Ry

     convergence has been achieved in   9 iterations

     Forces acting on atoms (cartesian axes, Ry/au):

     atom    1 type  2   force =    -0.00000000    0.00000000    0.00126186
     atom    2 type  2   force =     0.00000000   -0.00000000    0.00126186
     atom    3 type  1   force =     0.00000000    0.00000000   -0.00126186
     atom    4 type  1   force =     0.00000000   -0.00000000   -0.00126186
     The non-local contrib.  to forces
     atom    1 type  2   force =     0.00000000   -0.00000000   -0.02031523
     atom    2 type  2   force =     0.00000000   -0.00000000   -0.02031523
     atom    3 type  1   force =     0.00000000   -0.00000000   -0.00276194
     atom    4 type  1   force =     0.00000000    0.00000000   -0.00276194
     The ionic contribution  to forces
     atom    1 type  2   force =    -0.00000076    0.00000044    0.10344220
     atom    2 type  2   force =     0.00000076   -0.00000044    0.10344220
     atom    3 type  1   force =    -0.00000066    0.00000038   -0.10344220
     atom    4 type  1   force =     0.00000066   -0.00000038   -0.10344220
     The local contribution  to forces
     atom    1 type  2   force =    -0.00000858    0.00000495   -0.08188590
     atom    2 type  2   force =     0.00002573   -0.00001485   -0.08188650
     atom    3 type  1   force =    -0.00000048    0.00000028    0.10491842
     atom    4 type  1   force =     0.00000145   -0.00000083    0.10491951
     The core correction contribution to forces
     atom    1 type  2   force =     0.00000000    0.00000000    0.00000000
     atom    2 type  2   force =     0.00000000    0.00000000    0.00000000
     atom    3 type  1   force =    -0.00000000    0.00000000    0.00002319
     atom    4 type  1   force =     0.00000000   -0.00000000    0.00002319
     The Hubbard contrib.    to forces
     atom    1 type  2   force =     0.00000000    0.00000000    0.00000000
     atom    2 type  2   force =     0.00000000    0.00000000    0.00000000
     atom    3 type  1   force =     0.00000000    0.00000000    0.00000000
     atom    4 type  1   force =     0.00000000    0.00000000    0.00000000
     The SCF correction term to forces
     atom    1 type  2   force =     0.00000000   -0.00000000    0.00002315
     atom    2 type  2   force =    -0.00000000    0.00000000    0.00002315
     atom    3 type  1   force =     0.00000000   -0.00000000    0.00000219
     atom    4 type  1   force =    -0.00000000    0.00000000    0.00000219

     Total force =     0.002524     Total SCF correction =     0.000033


     Computing stress (Cartesian axis) and pressure

          total   stress  (Ry/bohr**3)                   (kbar)     P=     1016.60
   0.00691865   0.00000000   0.00000000         1017.77        0.00        0.00
   0.00000000   0.00691865   0.00000000            0.00     1017.77        0.00
   0.00000000   0.00000000   0.00689477            0.00        0.00     1014.26

     kinetic stress (kbar)  48914.22      0.00      0.00
                                0.00  48914.22     -0.00
                                0.00     -0.00  48968.31

     local   stress (kbar)  12425.13     -0.00      0.00
                               -0.00  12425.13     -0.00
                                0.00     -0.00   6172.46

     nonloc. stress (kbar)   -690.76      0.00      0.00
                                0.00   -690.76     -0.00
                                0.00     -0.00   -716.30

     hartree stress (kbar)  80404.27     -0.00      0.00
                               -0.00  80404.27     -0.00
                                0.00     -0.00  83309.53

     exc-cor stress (kbar) -19650.98      0.00     -0.00
                                0.00 -19650.98      0.00
                               -0.00      0.00 -19651.03

     corecor stress (kbar)   -538.96     -0.00      0.00
                               -0.00   -538.96     -0.00
                                0.00     -0.00   -538.98

     ewald   stress (kbar)-119845.14      0.00      0.00
                                0.00-119845.13      0.00
                                0.00      0.00-116529.73

     hubbard stress (kbar)      0.00      0.00      0.00
                                0.00      0.00      0.00
                                0.00      0.00      0.00

     DFT-D   stress (kbar)      0.00      0.00      0.00
                                0.00      0.00      0.00
                                0.00      0.00      0.00

     XDM     stress (kbar)      0.00      0.00      0.00
                                0.00      0.00      0.00
                                0.00      0.00      0.00

     dft-nl  stress (kbar)      0.00      0.00      0.00
                                0.00      0.00      0.00
                                0.00      0.00      0.00

     TS-vdW  stress (kbar)      0.00      0.00      0.00
                                0.00      0.00      0.00
                                0.00      0.00      0.00

     MDB     stress (kbar)      0.00      0.00      0.00
                                0.00      0.00      0.00
                                0.00      0.00      0.00

     3D-RISM stress (kbar)      0.00      0.00      0.00
                                0.00      0.00      0.00
                                0.00      0.00      0.00


     Writing all to output data dir ./temp_hexag/aiida.save/ :
     XML data file, charge density, pseudopotentials, collected wavefunctions

     init_run     :    121.42s CPU      5.56s WALL (       1 calls)
     electrons    :   3907.37s CPU    176.47s WALL (       1 calls)
     forces       :    132.33s CPU      5.68s WALL (       1 calls)
     stress       :     61.06s CPU      3.04s WALL (       1 calls)

     Called by init_run:
     wfcinit      :    116.93s CPU      5.13s WALL (       1 calls)
     wfcinit:atom :      0.99s CPU      0.06s WALL (      95 calls)
     wfcinit:wfcr :    112.36s CPU      4.83s WALL (      95 calls)
     potinit      :      1.54s CPU      0.09s WALL (       1 calls)
     hinit0       :      1.51s CPU      0.23s WALL (       1 calls)

     Called by electrons:
     c_bands      :   3269.38s CPU    148.57s WALL (       9 calls)
     sum_band     :    617.52s CPU     26.57s WALL (       9 calls)
     v_of_rho     :      3.51s CPU      0.15s WALL (      10 calls)
     v_h          :      0.55s CPU      0.02s WALL (      10 calls)
     v_xc         :      4.34s CPU      0.19s WALL (      12 calls)
     newd         :     10.03s CPU      0.81s WALL (      10 calls)
     PAW_pot      :      7.81s CPU      0.35s WALL (      10 calls)
     mix_rho      :      0.49s CPU      0.03s WALL (       9 calls)

     Called by c_bands:
     init_us_2    :     25.98s CPU      1.41s WALL (    1995 calls)
     cegterg      :   3212.60s CPU    145.47s WALL (     855 calls)

     Called by sum_band:
     sum_band:wei :      0.54s CPU      0.02s WALL (       9 calls)
     sum_band:loo :    612.37s CPU     25.77s WALL (       9 calls)
     sum_band:buf :      2.29s CPU      0.07s WALL (     855 calls)
     sum_band:ini :     13.21s CPU      0.50s WALL (     855 calls)
     sum_band:cal :     67.55s CPU      2.88s WALL (     855 calls)
     sum_band:bec :     25.50s CPU      1.06s WALL (     855 calls)
     addusdens    :      3.81s CPU      0.71s WALL (       9 calls)
                                        0.00s GPU  (       9 calls)
     addusd:skk   :      0.27s CPU      0.00s WALL (      18 calls)
                                        0.00s GPU  (      18 calls)

     Called by *egterg:
     cdiaghg      :     56.11s CPU      2.51s WALL (    2992 calls)
     cegterg:over :    203.82s CPU      8.43s WALL (    2137 calls)
     cegterg:upda :     83.36s CPU      6.07s WALL (    2137 calls)
     cegterg:last :    101.19s CPU      8.31s WALL (    1627 calls)
     h_psi        :   2555.61s CPU    109.12s WALL (    3087 calls)
     s_psi        :    147.88s CPU      7.91s WALL (    3087 calls)
     g_psi        :     22.50s CPU      1.30s WALL (    2137 calls)

     Called by h_psi:
     h_psi:calbec :    174.09s CPU      7.15s WALL (    3087 calls)
     vloc_psi     :   2116.28s CPU     92.67s WALL (    3087 calls)
     add_vuspsi   :    229.01s CPU      7.68s WALL (    3087 calls)

     General routines
     calbec       :    282.17s CPU     11.74s WALL (    4417 calls)
     fft          :      2.53s CPU      0.13s WALL (     153 calls)
     ffts         :      0.02s CPU      0.01s WALL (      19 calls)
     fftw         :    754.51s CPU     34.52s WALL (  160037 calls)
     interpolate  :      0.23s CPU      0.01s WALL (      10 calls)

     Parallel routines

     PAW routines
     PAW_pot      :      7.81s CPU      0.35s WALL (      10 calls)
     PAW_symme    :      0.00s CPU      0.00s WALL (      19 calls)

     PWSCF        :      1h10m CPU   3m13.32s WALL


   This run was terminated on:   0:17:15  12Jun2024            

=------------------------------------------------------------------------------=
   JOB DONE.
=------------------------------------------------------------------------------=
