
     Program PWSCF v.7.3.1 starts on 11Jun2024 at 23:44:53 

     This program is part of the open-source Quantum ESPRESSO suite
     for quantum simulation of materials; please cite
         "P. Giannozzi et al., J. Phys.:Condens. Matter 21 395502 (2009);
         "P. Giannozzi et al., J. Phys.:Condens. Matter 29 465901 (2017);
         "P. Giannozzi et al., J. Chem. Phys. 152 154105 (2020);
          URL http://www.quantum-espresso.org", 
     in publications or presentations arising from this work. More details at
     http://www.quantum-espresso.org/quote

     Parallel version (MPI & OpenMP), running on      24 processor cores
     Number of MPI processes:                 1
     Threads/MPI process:                    24

     MPI processes distributed on     1 nodes
     4721 MiB available memory on the printing compute node when the environment starts

     Waiting for input...
     Reading input from standard input

     Current dimensions of program PWSCF are:
     Max number of different atomic species (ntypx) = 10
     Max number of k-points (npk) =  40000
     Max angular momentum in pseudopotentials (lmaxx) =  4
     file O.pbe-n-kjpaw_psl.0.1.UPF: wavefunction(s)  2P renormalized
     Message from routine setup:
     using ibrav=0 with symmetry is DISCOURAGED, use correct ibrav instead

     Subspace diagonalization in iterative solution of the eigenvalue problem:
     a serial algorithm will be used


     G-vector sticks info
     --------------------
     sticks:   dense  smooth     PW     G-vecs:    dense   smooth      PW
     Sum        1261     637    187                57609    20281    3393

     Using Slab Decomposition



     bravais-lattice index     =            0
     lattice parameter (alat)  =       6.7295  a.u.
     unit-cell volume          =     425.7227 (a.u.)^3
     number of atoms/cell      =            4
     number of atomic types    =            2
     number of electrons       =        52.00
     number of Kohn-Sham states=           31
     kinetic-energy cutoff     =      50.0000  Ry
     charge density cutoff     =     400.0000  Ry
     scf convergence threshold =      2.0E-08
     mixing beta               =       0.4000
     number of iterations used =            8  plain     mixing
     Exchange-correlation= SLA  PW   PBE  PBE
                           (   1   4   3   4   0   0   0)

     celldm(1)=   6.729477  celldm(2)=   0.000000  celldm(3)=   0.000000
     celldm(4)=   0.000000  celldm(5)=   0.000000  celldm(6)=   0.000000

     crystal axes: (cart. coord. in units of alat)
               a(1) = (   1.000000   0.000000   0.000000 )  
               a(2) = (  -0.500000   0.866025   0.000000 )  
               a(3) = (   0.000000   0.000000   1.613066 )  

     reciprocal axes: (cart. coord. in units 2 pi/alat)
               b(1) = (  1.000000  0.577350 -0.000000 )  
               b(2) = (  0.000000  1.154701  0.000000 )  
               b(3) = (  0.000000 -0.000000  0.619937 )  


     PseudoPot. # 1 for O  read from file:
     ../SSSP_1.3.0_PBE_efficiency/O.pbe-n-kjpaw_psl.0.1.UPF
     MD5 check sum: 0234752ac141de4415c5fc33072bef88
     Pseudo is Projector augmented-wave + core cor, Zval =  6.0
     Generated using "atomic" code by A. Dal Corso  v.5.0.99 svn rev. 10869
     Shape of augmentation charge: BESSEL
     Using radial grid of 1095 points,  4 beta functions with: 
                l(1) =   0
                l(2) =   0
                l(3) =   1
                l(4) =   1
     Q(r) pseudized with 0 coefficients 


     PseudoPot. # 2 for Zn read from file:
     ../SSSP_1.3.0_PBE_efficiency/Zn_pbe_v1.uspp.F.UPF
     MD5 check sum: df62231357ef9e81f77b2b3087fa5675
     Pseudo is Ultrasoft, Zval = 20.0
     Generated by new atomic code, or converted to UPF format
     Using radial grid of  943 points,  6 beta functions with: 
                l(1) =   0
                l(2) =   0
                l(3) =   1
                l(4) =   1
                l(5) =   2
                l(6) =   2
     Q(r) pseudized with  8 coefficients,  rinner =    1.100   1.100   1.100
                                                       1.100   1.100

     atomic species   valence    mass     pseudopotential
     O                 6.00    15.99940     O ( 1.00)
     Zn               20.00    65.38000     Zn( 1.00)

     12 Sym. Ops. (no inversion) found ( 6 have fractional translation)


                                    s                        frac. trans.

      isym =  1     identity                                     

 cryst.   s( 1) = (     1          0          0      )
                  (     0          1          0      )
                  (     0          0          1      )

 cart.    s( 1) = (  1.0000000  0.0000000  0.0000000 )
                  (  0.0000000  1.0000000  0.0000000 )
                  (  0.0000000  0.0000000  1.0000000 )


      isym =  2     180 deg rotation - cart. axis [0,0,1]        

 cryst.   s( 2) = (    -1          0          0      )    f =(  0.0000000 )
                  (     0         -1          0      )       (  0.0000000 )
                  (     0          0          1      )       (  0.5000000 )

 cart.    s( 2) = ( -1.0000000  0.0000000  0.0000000 )    f =(  0.0000000 )
                  (  0.0000000 -1.0000000  0.0000000 )       (  0.0000000 )
                  (  0.0000000  0.0000000  1.0000000 )       (  0.8065331 )


      isym =  3      60 deg rotation - cryst. axis [0,0,1]       

 cryst.   s( 3) = (     1          1          0      )    f =( -0.0000000 )
                  (    -1          0          0      )       (  0.0000000 )
                  (     0          0          1      )       (  0.5000000 )

 cart.    s( 3) = (  0.5000000 -0.8660254  0.0000000 )    f =( -0.0000000 )
                  (  0.8660254  0.5000000  0.0000000 )       (  0.0000000 )
                  (  0.0000000  0.0000000  1.0000000 )       (  0.8065331 )


      isym =  4      60 deg rotation - cryst. axis [0,0,-1]      

 cryst.   s( 4) = (     0         -1          0      )    f =(  0.0000000 )
                  (     1          1          0      )       (  0.0000000 )
                  (     0          0          1      )       (  0.5000000 )

 cart.    s( 4) = (  0.5000000  0.8660254  0.0000000 )    f =( -0.0000000 )
                  ( -0.8660254  0.5000000  0.0000000 )       (  0.0000000 )
                  (  0.0000000  0.0000000  1.0000000 )       (  0.8065331 )


      isym =  5     120 deg rotation - cryst. axis [0,0,1]       

 cryst.   s( 5) = (     0          1          0      )
                  (    -1         -1          0      )
                  (     0          0          1      )

 cart.    s( 5) = ( -0.5000000 -0.8660254  0.0000000 )
                  (  0.8660254 -0.5000000  0.0000000 )
                  (  0.0000000  0.0000000  1.0000000 )


      isym =  6     120 deg rotation - cryst. axis [0,0,-1]      

 cryst.   s( 6) = (    -1         -1          0      )
                  (     1          0          0      )
                  (     0          0          1      )

 cart.    s( 6) = ( -0.5000000  0.8660254  0.0000000 )
                  ( -0.8660254 -0.5000000  0.0000000 )
                  (  0.0000000  0.0000000  1.0000000 )


      isym =  7     inv. 180 deg rotation - cart. axis [0,1,0]   

 cryst.   s( 7) = (     1          0          0      )    f =( -0.0000000 )
                  (    -1         -1          0      )       (  0.0000000 )
                  (     0          0          1      )       (  0.5000000 )

 cart.    s( 7) = (  1.0000000  0.0000000  0.0000000 )    f =( -0.0000000 )
                  (  0.0000000 -1.0000000  0.0000000 )       (  0.0000000 )
                  (  0.0000000  0.0000000  1.0000000 )       (  0.8065331 )


      isym =  8     inv. 180 deg rotation - cart. axis [1,0,0]   

 cryst.   s( 8) = (    -1          0          0      )
                  (     1          1          0      )
                  (     0          0          1      )

 cart.    s( 8) = ( -1.0000000  0.0000000  0.0000000 )
                  (  0.0000000  1.0000000  0.0000000 )
                  (  0.0000000  0.0000000  1.0000000 )


      isym =  9     inv. 180 deg rotation - cryst. axis [1,-1,0] 

 cryst.   s( 9) = (     0          1          0      )    f =(  0.0000000 )
                  (     1          0          0      )       (  0.0000000 )
                  (     0          0          1      )       (  0.5000000 )

 cart.    s( 9) = ( -0.5000000  0.8660254  0.0000000 )    f =(  0.0000000 )
                  (  0.8660254  0.5000000  0.0000000 )       (  0.0000000 )
                  (  0.0000000  0.0000000  1.0000000 )       (  0.8065331 )


      isym = 10     inv. 180 deg rotation - cryst. axis [2,1,0]  

 cryst.   s(10) = (    -1         -1          0      )    f =(  0.0000000 )
                  (     0          1          0      )       (  0.0000000 )
                  (     0          0          1      )       (  0.5000000 )

 cart.    s(10) = ( -0.5000000 -0.8660254  0.0000000 )    f =( -0.0000000 )
                  ( -0.8660254  0.5000000  0.0000000 )       (  0.0000000 )
                  (  0.0000000  0.0000000  1.0000000 )       (  0.8065331 )


      isym = 11     inv. 180 deg rotation - cryst. axis [0,1,0]  

 cryst.   s(11) = (     1          1          0      )
                  (     0         -1          0      )
                  (     0          0          1      )

 cart.    s(11) = (  0.5000000  0.8660254  0.0000000 )
                  (  0.8660254 -0.5000000  0.0000000 )
                  (  0.0000000  0.0000000  1.0000000 )


      isym = 12     inv. 180 deg rotation - cryst. axis [1,1,0]  

 cryst.   s(12) = (     0         -1          0      )
                  (    -1          0          0      )
                  (     0          0          1      )

 cart.    s(12) = (  0.5000000 -0.8660254  0.0000000 )
                  ( -0.8660254 -0.5000000  0.0000000 )
                  (  0.0000000  0.0000000  1.0000000 )


   Cartesian axes

     site n.     atom                  positions (alat units)
         1        Zn     tau(   1) = (   0.5000000   0.2886751   0.8074875  )
         2        Zn     tau(   2) = (  -0.0000000   0.5773503   0.0009545  )
         3        O      tau(   3) = (   0.5000000   0.2886751   1.4190438  )
         4        O      tau(   4) = (  -0.0000000   0.5773503   0.6125107  )

   Crystallographic axes

     site n.     atom                  positions (cryst. coord.)
         1        Zn     tau(   1) = (  0.6666667  0.3333333  0.5005917  )
         2        Zn     tau(   2) = (  0.3333333  0.6666667  0.0005917  )
         3        O      tau(   3) = (  0.6666667  0.3333333  0.8797183  )
         4        O      tau(   4) = (  0.3333333  0.6666667  0.3797183  )

     number of k points=    95  Marzari-Vanderbilt smearing, width (Ry)=  0.0147
                       cart. coord. in units 2pi/alat
        k(    1) = (   0.0000000   0.0000000   0.0000000), wk =   0.0017361
        k(    2) = (   0.0000000   0.0000000   0.0774922), wk =   0.0034722
        k(    3) = (   0.0000000   0.0000000   0.1549843), wk =   0.0034722
        k(    4) = (   0.0000000   0.0000000   0.2324765), wk =   0.0034722
        k(    5) = (   0.0000000   0.0000000  -0.3099687), wk =   0.0017361
        k(    6) = (   0.0000000   0.0962250   0.0000000), wk =   0.0104167
        k(    7) = (   0.0000000   0.0962250   0.0774922), wk =   0.0208333
        k(    8) = (   0.0000000   0.0962250   0.1549843), wk =   0.0208333
        k(    9) = (   0.0000000   0.0962250   0.2324765), wk =   0.0208333
        k(   10) = (   0.0000000   0.0962250  -0.3099687), wk =   0.0104167
        k(   11) = (   0.0000000   0.1924501   0.0000000), wk =   0.0104167
        k(   12) = (   0.0000000   0.1924501   0.0774922), wk =   0.0208333
        k(   13) = (   0.0000000   0.1924501   0.1549843), wk =   0.0208333
        k(   14) = (   0.0000000   0.1924501   0.2324765), wk =   0.0208333
        k(   15) = (   0.0000000   0.1924501  -0.3099687), wk =   0.0104167
        k(   16) = (   0.0000000   0.2886751   0.0000000), wk =   0.0104167
        k(   17) = (   0.0000000   0.2886751   0.0774922), wk =   0.0208333
        k(   18) = (   0.0000000   0.2886751   0.1549843), wk =   0.0208333
        k(   19) = (   0.0000000   0.2886751   0.2324765), wk =   0.0208333
        k(   20) = (   0.0000000   0.2886751  -0.3099687), wk =   0.0104167
        k(   21) = (   0.0000000   0.3849002   0.0000000), wk =   0.0104167
        k(   22) = (   0.0000000   0.3849002   0.0774922), wk =   0.0208333
        k(   23) = (   0.0000000   0.3849002   0.1549843), wk =   0.0208333
        k(   24) = (   0.0000000   0.3849002   0.2324765), wk =   0.0208333
        k(   25) = (   0.0000000   0.3849002  -0.3099687), wk =   0.0104167
        k(   26) = (   0.0000000   0.4811252   0.0000000), wk =   0.0104167
        k(   27) = (   0.0000000   0.4811252   0.0774922), wk =   0.0208333
        k(   28) = (   0.0000000   0.4811252   0.1549843), wk =   0.0208333
        k(   29) = (   0.0000000   0.4811252   0.2324765), wk =   0.0208333
        k(   30) = (   0.0000000   0.4811252  -0.3099687), wk =   0.0104167
        k(   31) = (   0.0000000  -0.5773503   0.0000000), wk =   0.0052083
        k(   32) = (   0.0000000  -0.5773503   0.0774922), wk =   0.0104167
        k(   33) = (   0.0000000  -0.5773503   0.1549843), wk =   0.0104167
        k(   34) = (   0.0000000  -0.5773503   0.2324765), wk =   0.0104167
        k(   35) = (   0.0000000  -0.5773503  -0.3099687), wk =   0.0052083
        k(   36) = (   0.0833333   0.1443376   0.0000000), wk =   0.0104167
        k(   37) = (   0.0833333   0.1443376   0.0774922), wk =   0.0208333
        k(   38) = (   0.0833333   0.1443376   0.1549843), wk =   0.0208333
        k(   39) = (   0.0833333   0.1443376   0.2324765), wk =   0.0208333
        k(   40) = (   0.0833333   0.1443376  -0.3099687), wk =   0.0104167
        k(   41) = (   0.0833333   0.2405626   0.0000000), wk =   0.0208333
        k(   42) = (   0.0833333   0.2405626   0.0774922), wk =   0.0416667
        k(   43) = (   0.0833333   0.2405626   0.1549843), wk =   0.0416667
        k(   44) = (   0.0833333   0.2405626   0.2324765), wk =   0.0416667
        k(   45) = (   0.0833333   0.2405626  -0.3099687), wk =   0.0208333
        k(   46) = (   0.0833333   0.3367877   0.0000000), wk =   0.0208333
        k(   47) = (   0.0833333   0.3367877   0.0774922), wk =   0.0416667
        k(   48) = (   0.0833333   0.3367877   0.1549843), wk =   0.0416667
        k(   49) = (   0.0833333   0.3367877   0.2324765), wk =   0.0416667
        k(   50) = (   0.0833333   0.3367877  -0.3099687), wk =   0.0208333
        k(   51) = (   0.0833333   0.4330127   0.0000000), wk =   0.0208333
        k(   52) = (   0.0833333   0.4330127   0.0774922), wk =   0.0416667
        k(   53) = (   0.0833333   0.4330127   0.1549843), wk =   0.0416667
        k(   54) = (   0.0833333   0.4330127   0.2324765), wk =   0.0416667
        k(   55) = (   0.0833333   0.4330127  -0.3099687), wk =   0.0208333
        k(   56) = (   0.0833333   0.5292377   0.0000000), wk =   0.0208333
        k(   57) = (   0.0833333   0.5292377   0.0774922), wk =   0.0416667
        k(   58) = (   0.0833333   0.5292377   0.1549843), wk =   0.0416667
        k(   59) = (   0.0833333   0.5292377   0.2324765), wk =   0.0416667
        k(   60) = (   0.0833333   0.5292377  -0.3099687), wk =   0.0208333
        k(   61) = (   0.1666667   0.2886751   0.0000000), wk =   0.0104167
        k(   62) = (   0.1666667   0.2886751   0.0774922), wk =   0.0208333
        k(   63) = (   0.1666667   0.2886751   0.1549843), wk =   0.0208333
        k(   64) = (   0.1666667   0.2886751   0.2324765), wk =   0.0208333
        k(   65) = (   0.1666667   0.2886751  -0.3099687), wk =   0.0104167
        k(   66) = (   0.1666667   0.3849002   0.0000000), wk =   0.0208333
        k(   67) = (   0.1666667   0.3849002   0.0774922), wk =   0.0416667
        k(   68) = (   0.1666667   0.3849002   0.1549843), wk =   0.0416667
        k(   69) = (   0.1666667   0.3849002   0.2324765), wk =   0.0416667
        k(   70) = (   0.1666667   0.3849002  -0.3099687), wk =   0.0208333
        k(   71) = (   0.1666667   0.4811252   0.0000000), wk =   0.0208333
        k(   72) = (   0.1666667   0.4811252   0.0774922), wk =   0.0416667
        k(   73) = (   0.1666667   0.4811252   0.1549843), wk =   0.0416667
        k(   74) = (   0.1666667   0.4811252   0.2324765), wk =   0.0416667
        k(   75) = (   0.1666667   0.4811252  -0.3099687), wk =   0.0208333
        k(   76) = (   0.1666667   0.5773503   0.0000000), wk =   0.0104167
        k(   77) = (   0.1666667   0.5773503   0.0774922), wk =   0.0208333
        k(   78) = (   0.1666667   0.5773503   0.1549843), wk =   0.0208333
        k(   79) = (   0.1666667   0.5773503   0.2324765), wk =   0.0208333
        k(   80) = (   0.1666667   0.5773503  -0.3099687), wk =   0.0104167
        k(   81) = (   0.2500000   0.4330127   0.0000000), wk =   0.0104167
        k(   82) = (   0.2500000   0.4330127   0.0774922), wk =   0.0208333
        k(   83) = (   0.2500000   0.4330127   0.1549843), wk =   0.0208333
        k(   84) = (   0.2500000   0.4330127   0.2324765), wk =   0.0208333
        k(   85) = (   0.2500000   0.4330127  -0.3099687), wk =   0.0104167
        k(   86) = (   0.2500000   0.5292377   0.0000000), wk =   0.0208333
        k(   87) = (   0.2500000   0.5292377   0.0774922), wk =   0.0416667
        k(   88) = (   0.2500000   0.5292377   0.1549843), wk =   0.0416667
        k(   89) = (   0.2500000   0.5292377   0.2324765), wk =   0.0416667
        k(   90) = (   0.2500000   0.5292377  -0.3099687), wk =   0.0208333
        k(   91) = (   0.3333333   0.5773503   0.0000000), wk =   0.0034722
        k(   92) = (   0.3333333   0.5773503   0.0774922), wk =   0.0069444
        k(   93) = (   0.3333333   0.5773503   0.1549843), wk =   0.0069444
        k(   94) = (   0.3333333   0.5773503   0.2324765), wk =   0.0069444
        k(   95) = (   0.3333333   0.5773503  -0.3099687), wk =   0.0034722

                       cryst. coord.
        k(    1) = (   0.0000000   0.0000000   0.0000000), wk =   0.0017361
        k(    2) = (   0.0000000   0.0000000   0.1250000), wk =   0.0034722
        k(    3) = (   0.0000000   0.0000000   0.2500000), wk =   0.0034722
        k(    4) = (   0.0000000   0.0000000   0.3750000), wk =   0.0034722
        k(    5) = (   0.0000000   0.0000000  -0.5000000), wk =   0.0017361
        k(    6) = (   0.0000000   0.0833333   0.0000000), wk =   0.0104167
        k(    7) = (   0.0000000   0.0833333   0.1250000), wk =   0.0208333
        k(    8) = (   0.0000000   0.0833333   0.2500000), wk =   0.0208333
        k(    9) = (   0.0000000   0.0833333   0.3750000), wk =   0.0208333
        k(   10) = (   0.0000000   0.0833333  -0.5000000), wk =   0.0104167
        k(   11) = (   0.0000000   0.1666667   0.0000000), wk =   0.0104167
        k(   12) = (   0.0000000   0.1666667   0.1250000), wk =   0.0208333
        k(   13) = (   0.0000000   0.1666667   0.2500000), wk =   0.0208333
        k(   14) = (   0.0000000   0.1666667   0.3750000), wk =   0.0208333
        k(   15) = (   0.0000000   0.1666667  -0.5000000), wk =   0.0104167
        k(   16) = (   0.0000000   0.2500000   0.0000000), wk =   0.0104167
        k(   17) = (   0.0000000   0.2500000   0.1250000), wk =   0.0208333
        k(   18) = (   0.0000000   0.2500000   0.2500000), wk =   0.0208333
        k(   19) = (   0.0000000   0.2500000   0.3750000), wk =   0.0208333
        k(   20) = (   0.0000000   0.2500000  -0.5000000), wk =   0.0104167
        k(   21) = (   0.0000000   0.3333333   0.0000000), wk =   0.0104167
        k(   22) = (   0.0000000   0.3333333   0.1250000), wk =   0.0208333
        k(   23) = (   0.0000000   0.3333333   0.2500000), wk =   0.0208333
        k(   24) = (   0.0000000   0.3333333   0.3750000), wk =   0.0208333
        k(   25) = (   0.0000000   0.3333333  -0.5000000), wk =   0.0104167
        k(   26) = (   0.0000000   0.4166667   0.0000000), wk =   0.0104167
        k(   27) = (   0.0000000   0.4166667   0.1250000), wk =   0.0208333
        k(   28) = (   0.0000000   0.4166667   0.2500000), wk =   0.0208333
        k(   29) = (   0.0000000   0.4166667   0.3750000), wk =   0.0208333
        k(   30) = (   0.0000000   0.4166667  -0.5000000), wk =   0.0104167
        k(   31) = (   0.0000000  -0.5000000   0.0000000), wk =   0.0052083
        k(   32) = (   0.0000000  -0.5000000   0.1250000), wk =   0.0104167
        k(   33) = (   0.0000000  -0.5000000   0.2500000), wk =   0.0104167
        k(   34) = (   0.0000000  -0.5000000   0.3750000), wk =   0.0104167
        k(   35) = (   0.0000000  -0.5000000  -0.5000000), wk =   0.0052083
        k(   36) = (   0.0833333   0.0833333   0.0000000), wk =   0.0104167
        k(   37) = (   0.0833333   0.0833333   0.1250000), wk =   0.0208333
        k(   38) = (   0.0833333   0.0833333   0.2500000), wk =   0.0208333
        k(   39) = (   0.0833333   0.0833333   0.3750000), wk =   0.0208333
        k(   40) = (   0.0833333   0.0833333  -0.5000000), wk =   0.0104167
        k(   41) = (   0.0833333   0.1666667   0.0000000), wk =   0.0208333
        k(   42) = (   0.0833333   0.1666667   0.1250000), wk =   0.0416667
        k(   43) = (   0.0833333   0.1666667   0.2500000), wk =   0.0416667
        k(   44) = (   0.0833333   0.1666667   0.3750000), wk =   0.0416667
        k(   45) = (   0.0833333   0.1666667  -0.5000000), wk =   0.0208333
        k(   46) = (   0.0833333   0.2500000   0.0000000), wk =   0.0208333
        k(   47) = (   0.0833333   0.2500000   0.1250000), wk =   0.0416667
        k(   48) = (   0.0833333   0.2500000   0.2500000), wk =   0.0416667
        k(   49) = (   0.0833333   0.2500000   0.3750000), wk =   0.0416667
        k(   50) = (   0.0833333   0.2500000  -0.5000000), wk =   0.0208333
        k(   51) = (   0.0833333   0.3333333   0.0000000), wk =   0.0208333
        k(   52) = (   0.0833333   0.3333333   0.1250000), wk =   0.0416667
        k(   53) = (   0.0833333   0.3333333   0.2500000), wk =   0.0416667
        k(   54) = (   0.0833333   0.3333333   0.3750000), wk =   0.0416667
        k(   55) = (   0.0833333   0.3333333  -0.5000000), wk =   0.0208333
        k(   56) = (   0.0833333   0.4166667   0.0000000), wk =   0.0208333
        k(   57) = (   0.0833333   0.4166667   0.1250000), wk =   0.0416667
        k(   58) = (   0.0833333   0.4166667   0.2500000), wk =   0.0416667
        k(   59) = (   0.0833333   0.4166667   0.3750000), wk =   0.0416667
        k(   60) = (   0.0833333   0.4166667  -0.5000000), wk =   0.0208333
        k(   61) = (   0.1666667   0.1666667   0.0000000), wk =   0.0104167
        k(   62) = (   0.1666667   0.1666667   0.1250000), wk =   0.0208333
        k(   63) = (   0.1666667   0.1666667   0.2500000), wk =   0.0208333
        k(   64) = (   0.1666667   0.1666667   0.3750000), wk =   0.0208333
        k(   65) = (   0.1666667   0.1666667  -0.5000000), wk =   0.0104167
        k(   66) = (   0.1666667   0.2500000   0.0000000), wk =   0.0208333
        k(   67) = (   0.1666667   0.2500000   0.1250000), wk =   0.0416667
        k(   68) = (   0.1666667   0.2500000   0.2500000), wk =   0.0416667
        k(   69) = (   0.1666667   0.2500000   0.3750000), wk =   0.0416667
        k(   70) = (   0.1666667   0.2500000  -0.5000000), wk =   0.0208333
        k(   71) = (   0.1666667   0.3333333   0.0000000), wk =   0.0208333
        k(   72) = (   0.1666667   0.3333333   0.1250000), wk =   0.0416667
        k(   73) = (   0.1666667   0.3333333   0.2500000), wk =   0.0416667
        k(   74) = (   0.1666667   0.3333333   0.3750000), wk =   0.0416667
        k(   75) = (   0.1666667   0.3333333  -0.5000000), wk =   0.0208333
        k(   76) = (   0.1666667   0.4166667   0.0000000), wk =   0.0104167
        k(   77) = (   0.1666667   0.4166667   0.1250000), wk =   0.0208333
        k(   78) = (   0.1666667   0.4166667   0.2500000), wk =   0.0208333
        k(   79) = (   0.1666667   0.4166667   0.3750000), wk =   0.0208333
        k(   80) = (   0.1666667   0.4166667  -0.5000000), wk =   0.0104167
        k(   81) = (   0.2500000   0.2500000   0.0000000), wk =   0.0104167
        k(   82) = (   0.2500000   0.2500000   0.1250000), wk =   0.0208333
        k(   83) = (   0.2500000   0.2500000   0.2500000), wk =   0.0208333
        k(   84) = (   0.2500000   0.2500000   0.3750000), wk =   0.0208333
        k(   85) = (   0.2500000   0.2500000  -0.5000000), wk =   0.0104167
        k(   86) = (   0.2500000   0.3333333   0.0000000), wk =   0.0208333
        k(   87) = (   0.2500000   0.3333333   0.1250000), wk =   0.0416667
        k(   88) = (   0.2500000   0.3333333   0.2500000), wk =   0.0416667
        k(   89) = (   0.2500000   0.3333333   0.3750000), wk =   0.0416667
        k(   90) = (   0.2500000   0.3333333  -0.5000000), wk =   0.0208333
        k(   91) = (   0.3333333   0.3333333   0.0000000), wk =   0.0034722
        k(   92) = (   0.3333333   0.3333333   0.1250000), wk =   0.0069444
        k(   93) = (   0.3333333   0.3333333   0.2500000), wk =   0.0069444
        k(   94) = (   0.3333333   0.3333333   0.3750000), wk =   0.0069444
        k(   95) = (   0.3333333   0.3333333  -0.5000000), wk =   0.0034722

     Dense  grid:    57609 G-vectors     FFT dimensions: (  45,  45,  72)

     Smooth grid:    20281 G-vectors     FFT dimensions: (  32,  32,  50)

     Dynamical RAM for                 wfc:       1.20 MB

     Dynamical RAM for     wfc (w. buffer):     115.43 MB

     Dynamical RAM for           str. fact:       1.76 MB

     Dynamical RAM for           local pot:       0.00 MB

     Dynamical RAM for          nlocal pot:       2.02 MB

     Dynamical RAM for                qrad:       3.21 MB

     Dynamical RAM for          rho,v,vnew:       5.97 MB

     Dynamical RAM for               rhoin:       1.99 MB

     Dynamical RAM for            rho*nmix:      14.06 MB

     Dynamical RAM for           G-vectors:       3.45 MB

     Dynamical RAM for          h,s,v(r/c):       0.18 MB

     Dynamical RAM for          <psi|beta>:       0.02 MB

     Dynamical RAM for                 psi:       2.40 MB

     Dynamical RAM for                hpsi:       2.40 MB

     Dynamical RAM for                spsi:       2.40 MB

     Dynamical RAM for      wfcinit/wfcrot:       2.66 MB

     Dynamical RAM for           addusdens:     165.26 MB

     Dynamical RAM for          addusforce:     167.47 MB

     Dynamical RAM for         addusstress:     176.69 MB

     Estimated static dynamical RAM per process >     142.03 MB

     Estimated max dynamical RAM per process >     332.79 MB

     Check: negative core charge=   -0.000002

     Initial potential from superposition of free atoms

     starting charge      51.9997, renormalised to      52.0000
     Starting wfcs are   34 randomized atomic wfcs
     Checking if some PAW data can be deallocated... 

     total cpu time spent up to now is        9.6 secs

     Self-consistent Calculation

     iteration #  1     ecut=    50.00 Ry     beta= 0.40
     Davidson diagonalization with overlap

---- Real-time Memory Report at c_bands before calling an iterative solver
           227 MiB given to the printing process from OS
             0 MiB allocation reported by mallinfo(arena+hblkhd)
          4566 MiB available memory on the node where the printing process lives
------------------
     ethr =  1.00E-02,  avg # of iterations =  2.8

     total cpu time spent up to now is       31.6 secs

     total energy              =   -1006.17463087 Ry
     estimated scf accuracy    <       1.02788599 Ry

     iteration #  2     ecut=    50.00 Ry     beta= 0.40
     Davidson diagonalization with overlap

---- Real-time Memory Report at c_bands before calling an iterative solver
           382 MiB given to the printing process from OS
             0 MiB allocation reported by mallinfo(arena+hblkhd)
          4512 MiB available memory on the node where the printing process lives
------------------
     ethr =  1.98E-03,  avg # of iterations =  2.1

     total cpu time spent up to now is       57.4 secs

     WARNING: integrated charge=    52.00139307, expected=    52.00000000

     total energy              =   -1006.45823842 Ry
     estimated scf accuracy    <       0.26869522 Ry

     iteration #  3     ecut=    50.00 Ry     beta= 0.40
     Davidson diagonalization with overlap

---- Real-time Memory Report at c_bands before calling an iterative solver
           383 MiB given to the printing process from OS
             0 MiB allocation reported by mallinfo(arena+hblkhd)
          4506 MiB available memory on the node where the printing process lives
------------------
     ethr =  5.17E-04,  avg # of iterations =  2.0

     total cpu time spent up to now is       81.1 secs

     WARNING: integrated charge=    52.00181161, expected=    52.00000000

     total energy              =   -1006.49869306 Ry
     estimated scf accuracy    <       0.01292037 Ry

     iteration #  4     ecut=    50.00 Ry     beta= 0.40
     Davidson diagonalization with overlap

---- Real-time Memory Report at c_bands before calling an iterative solver
           384 MiB given to the printing process from OS
             0 MiB allocation reported by mallinfo(arena+hblkhd)
          4506 MiB available memory on the node where the printing process lives
------------------
     ethr =  2.48E-05,  avg # of iterations =  2.9

     total cpu time spent up to now is      106.0 secs

     WARNING: integrated charge=    52.00192036, expected=    52.00000000

     total energy              =   -1006.49959336 Ry
     estimated scf accuracy    <       0.00123132 Ry

     iteration #  5     ecut=    50.00 Ry     beta= 0.40
     Davidson diagonalization with overlap

---- Real-time Memory Report at c_bands before calling an iterative solver
           384 MiB given to the printing process from OS
             0 MiB allocation reported by mallinfo(arena+hblkhd)
          4504 MiB available memory on the node where the printing process lives
------------------
     ethr =  2.37E-06,  avg # of iterations =  4.3

     total cpu time spent up to now is      128.8 secs

     WARNING: integrated charge=    52.00195567, expected=    52.00000000

     total energy              =   -1006.49962781 Ry
     estimated scf accuracy    <       0.00007891 Ry

     iteration #  6     ecut=    50.00 Ry     beta= 0.40
     Davidson diagonalization with overlap

---- Real-time Memory Report at c_bands before calling an iterative solver
           385 MiB given to the printing process from OS
             0 MiB allocation reported by mallinfo(arena+hblkhd)
          4506 MiB available memory on the node where the printing process lives
------------------
     ethr =  1.52E-07,  avg # of iterations =  3.1

     total cpu time spent up to now is      154.2 secs

     WARNING: integrated charge=    52.00200044, expected=    52.00000000

     total energy              =   -1006.49963746 Ry
     estimated scf accuracy    <       0.00005917 Ry

     iteration #  7     ecut=    50.00 Ry     beta= 0.40
     Davidson diagonalization with overlap

---- Real-time Memory Report at c_bands before calling an iterative solver
           386 MiB given to the printing process from OS
             0 MiB allocation reported by mallinfo(arena+hblkhd)
          4506 MiB available memory on the node where the printing process lives
------------------
     ethr =  1.14E-07,  avg # of iterations =  2.0

     total cpu time spent up to now is      175.5 secs

     WARNING: integrated charge=    52.00199015, expected=    52.00000000

     total energy              =   -1006.49965847 Ry
     estimated scf accuracy    <       0.00000028 Ry

     iteration #  8     ecut=    50.00 Ry     beta= 0.40
     Davidson diagonalization with overlap

---- Real-time Memory Report at c_bands before calling an iterative solver
           386 MiB given to the printing process from OS
             0 MiB allocation reported by mallinfo(arena+hblkhd)
          4505 MiB available memory on the node where the printing process lives
------------------
     ethr =  5.45E-10,  avg # of iterations =  3.3

     total cpu time spent up to now is      201.6 secs

     WARNING: integrated charge=    52.00198613, expected=    52.00000000

     total energy              =   -1006.49965807 Ry
     estimated scf accuracy    <       0.00000010 Ry

     iteration #  9     ecut=    50.00 Ry     beta= 0.40
     Davidson diagonalization with overlap

---- Real-time Memory Report at c_bands before calling an iterative solver
           387 MiB given to the printing process from OS
             0 MiB allocation reported by mallinfo(arena+hblkhd)
          4504 MiB available memory on the node where the printing process lives
------------------
     ethr =  1.84E-10,  avg # of iterations =  2.2

     total cpu time spent up to now is      223.7 secs

     End of self-consistent calculation

          k = 0.0000 0.0000 0.0000 (  2551 PWs)   bands (ev):

  -118.5357-118.5357 -72.7258 -72.7255 -72.7224 -72.7224 -72.7222 -72.7222
   -11.4284 -11.0504  -0.0324  -0.0324  -0.0176   0.0738   0.0738   0.4759
     0.4759   0.5643   0.5814   0.5814   1.2536   4.3420   4.3420   4.8314
     4.8518   4.8518   5.1971   8.9854  12.0880  16.2751  16.2751

     occupation numbers 
     1.0000   1.0000   1.0000   1.0000   1.0000   1.0000   1.0000   1.0000
     1.0000   1.0000   1.0000   1.0000   1.0000   1.0000   1.0000   1.0000
     1.0000   1.0000   1.0000   1.0000   1.0000   1.0000   1.0000   1.0021
     1.0032   1.0032   1.0503   0.0000   0.0000   0.0000   0.0000

          k = 0.0000 0.0000 0.0775 (  2557 PWs)   bands (ev):

  -118.5357-118.5357 -72.7258 -72.7255 -72.7225 -72.7225 -72.7222 -72.7222
   -11.4144 -11.0652  -0.0302  -0.0302  -0.0227   0.0678   0.0678   0.4380
     0.4813   0.4813   0.5790   0.5790   1.4497   4.3618   4.3618   4.3959
     4.8329   4.8329   5.6675   8.8842  12.1881  16.2815  16.2815

     occupation numbers 
     1.0000   1.0000   1.0000   1.0000   1.0000   1.0000   1.0000   1.0000
     1.0000   1.0000   1.0000   1.0000   1.0000   1.0000   1.0000   1.0000
     1.0000   1.0000   1.0000   1.0000   1.0000   1.0000   1.0000   1.0000
     1.0022   1.0022   0.0109   0.0000   0.0000   0.0000   0.0000

          k = 0.0000 0.0000 0.1550 (  2508 PWs)   bands (ev):

  -118.5357-118.5357 -72.7256 -72.7253 -72.7223 -72.7223 -72.7221 -72.7221
   -11.3744 -11.1071  -0.0322  -0.0230  -0.0230   0.0517   0.0517   0.2413
     0.4964   0.4964   0.5713   0.5713   1.8491   3.8514   4.4182   4.4182
     4.7787   4.7787   6.3061   8.5929  12.4910  15.6399  16.3100

     occupation numbers 
     1.0000   1.0000   1.0000   1.0000   1.0000   1.0000   1.0000   1.0000
     1.0000   1.0000   1.0000   1.0000   1.0000   1.0000   1.0000   1.0000
     1.0000   1.0000   1.0000   1.0000   1.0000   1.0000   1.0000   1.0000
     1.0006   1.0006   0.0000   0.0000   0.0000   0.0000   0.0000

          k = 0.0000 0.0000 0.2325 (  2538 PWs)   bands (ev):

  -118.5357-118.5357 -72.7257 -72.7254 -72.7224 -72.7224 -72.7222 -72.7222
   -11.3140 -11.1694  -0.0301  -0.0102  -0.0102   0.0301   0.0301   0.0916
     0.5170   0.5170   0.5576   0.5576   2.3164   3.3242   4.5020   4.5020
     4.6971   4.6971   6.9577   8.1448  13.0016  14.6190  16.3809

     occupation numbers 
     1.0000   1.0000   1.0000   1.0000   1.0000   1.0000   1.0000   1.0000
     1.0000   1.0000   1.0000   1.0000   1.0000   1.0000   1.0000   1.0000
     1.0000   1.0000   1.0000   1.0000   1.0000   1.0000   1.0000   1.0000
     1.0001   1.0001   0.0000   0.0000   0.0000   0.0000   0.0000

          k = 0.0000 0.0000-0.3100 (  2532 PWs)   bands (ev):

  -118.5357-118.5357 -72.7256 -72.7256 -72.7223 -72.7223 -72.7223 -72.7223
   -11.2421 -11.2421   0.0046   0.0046   0.0081   0.0081   0.0081   0.0081
     0.5388   0.5388   0.5388   0.5388   2.8125   2.8125   4.6000   4.6000
     4.6000   4.6000   7.5845   7.5845  13.7180  13.7180  16.5074

     occupation numbers 
     1.0000   1.0000   1.0000   1.0000   1.0000   1.0000   1.0000   1.0000
     1.0000   1.0000   1.0000   1.0000   1.0000   1.0000   1.0000   1.0000
     1.0000   1.0000   1.0000   1.0000   1.0000   1.0000   1.0000   1.0000
     1.0000   1.0000   0.0000   0.0000   0.0000   0.0000   0.0000

          k = 0.0000 0.0962 0.0000 (  2569 PWs)   bands (ev):

  -118.5357-118.5357 -72.7258 -72.7255 -72.7225 -72.7224 -72.7224 -72.7223
   -11.4077 -11.0412  -0.0428  -0.0195  -0.0013   0.0792   0.0919   0.4688
     0.4750   0.5098   0.5830   0.6400   1.3061   4.1284   4.2797   4.3201
     4.8021   4.8197   5.8056   9.2152  12.1134  15.6591  16.3020

     occupation numbers 
     1.0000   1.0000   1.0000   1.0000   1.0000   1.0000   1.0000   1.0000
     1.0000   1.0000   1.0000   1.0000   1.0000   1.0000   1.0000   1.0000
     1.0000   1.0000   1.0000   1.0000   1.0000   1.0000   1.0000   1.0000
     1.0011   1.0016   0.0004   0.0000   0.0000   0.0000   0.0000

          k = 0.0000 0.0962 0.0775 (  2559 PWs)   bands (ev):

  -118.5357-118.5357 -72.7258 -72.7254 -72.7225 -72.7224 -72.7224 -72.7223
   -11.3941 -11.0554  -0.0448  -0.0171  -0.0025   0.0726   0.0858   0.4235
     0.4754   0.4804   0.5803   0.6026   1.4937   4.0888   4.1955   4.3007
     4.7683   4.7996   6.0429   9.1077  12.2114  15.6562  16.3090

     occupation numbers 
     1.0000   1.0000   1.0000   1.0000   1.0000   1.0000   1.0000   1.0000
     1.0000   1.0000   1.0000   1.0000   1.0000   1.0000   1.0000   1.0000
     1.0000   1.0000   1.0000   1.0000   1.0000   1.0000   1.0000   1.0000
     1.0005   1.0010   0.0000   0.0000   0.0000   0.0000   0.0000

          k = 0.0000 0.0962 0.1550 (  2544 PWs)   bands (ev):

  -118.5357-118.5357 -72.7257 -72.7254 -72.7224 -72.7224 -72.7223 -72.7223
   -11.3552 -11.0960  -0.0496  -0.0092  -0.0006   0.0543   0.0691   0.2454
     0.4921   0.4954   0.5720   0.5801   1.8803   3.7160   4.2378   4.3604
     4.6910   4.7422   6.5581   8.8018  12.5070  15.4185  15.9845

     occupation numbers 
     1.0000   1.0000   1.0000   1.0000   1.0000   1.0000   1.0000   1.0000
     1.0000   1.0000   1.0000   1.0000   1.0000   1.0000   1.0000   1.0000
     1.0000   1.0000   1.0000   1.0000   1.0000   1.0000   1.0000   1.0000
     1.0001   1.0003   0.0000   0.0000   0.0000   0.0000   0.0000

          k = 0.0000 0.0962 0.2325 (  2537 PWs)   bands (ev):

  -118.5357-118.5357 -72.7256 -72.7255 -72.7224 -72.7224 -72.7223 -72.7222
   -11.2965 -11.1562  -0.0466   0.0045   0.0089   0.0270   0.0468   0.1062
     0.5152   0.5161   0.5576   0.5617   2.3295   3.2642   4.3382   4.4490
     4.5836   4.6557   7.1626   8.3400  13.0027  14.5513  15.9752

     occupation numbers 
     1.0000   1.0000   1.0000   1.0000   1.0000   1.0000   1.0000   1.0000
     1.0000   1.0000   1.0000   1.0000   1.0000   1.0000   1.0000   1.0000
     1.0000   1.0000   1.0000   1.0000   1.0000   1.0000   1.0000   1.0000
     1.0000   1.0000   0.0000   0.0000   0.0000   0.0000   0.0000

          k = 0.0000 0.0962-0.3100 (  2552 PWs)   bands (ev):

  -118.5357-118.5357 -72.7256 -72.7256 -72.7224 -72.7224 -72.7224 -72.7224
   -11.2267 -11.2267  -0.0198  -0.0198   0.0238   0.0238   0.0396   0.0396
     0.5382   0.5382   0.5396   0.5396   2.7972   2.7972   4.4599   4.4599
     4.5528   4.5528   7.7754   7.7754  13.6940  13.6940  16.1162

     occupation numbers 
     1.0000   1.0000   1.0000   1.0000   1.0000   1.0000   1.0000   1.0000
     1.0000   1.0000   1.0000   1.0000   1.0000   1.0000   1.0000   1.0000
     1.0000   1.0000   1.0000   1.0000   1.0000   1.0000   1.0000   1.0000
     1.0000   1.0000   0.0000   0.0000   0.0000   0.0000   0.0000

          k = 0.0000 0.1925 0.0000 (  2559 PWs)   bands (ev):

  -118.5357-118.5357 -72.7258 -72.7255 -72.7225 -72.7225 -72.7224 -72.7223
   -11.3497 -11.0167  -0.0557   0.0137   0.0287   0.1033   0.1432   0.4501
     0.4694   0.4763   0.5868   0.6891   1.4606   3.5381   3.8112   4.1124
     4.7080   4.7292   6.6058   9.7697  12.1901  14.5316  15.7032

     occupation numbers 
     1.0000   1.0000   1.0000   1.0000   1.0000   1.0000   1.0000   1.0000
     1.0000   1.0000   1.0000   1.0000   1.0000   1.0000   1.0000   1.0000
     1.0000   1.0000   1.0000   1.0000   1.0000   1.0000   1.0000   1.0000
     1.0001   1.0002   0.0000   0.0000   0.0000   0.0000   0.0000

          k = 0.0000 0.1925 0.0775 (  2557 PWs)   bands (ev):

  -118.5357-118.5357 -72.7257 -72.7254 -72.7225 -72.7225 -72.7224 -72.7224
   -11.3372 -11.0295  -0.0588   0.0170   0.0265   0.0965   0.1365   0.4038
     0.4611   0.4814   0.5836   0.6454   1.6202   3.5088   3.7860   4.1364
     4.6721   4.7062   6.7470   9.6462  12.2757  14.5412  15.6501

     occupation numbers 
     1.0000   1.0000   1.0000   1.0000   1.0000   1.0000   1.0000   1.0000
     1.0000   1.0000   1.0000   1.0000   1.0000   1.0000   1.0000   1.0000
     1.0000   1.0000   1.0000   1.0000   1.0000   1.0000   1.0000   1.0000
     1.0000   1.0001   0.0000   0.0000   0.0000   0.0000   0.0000

          k = 0.0000 0.1925 0.1550 (  2557 PWs)   bands (ev):

  -118.5357-118.5357 -72.7257 -72.7255 -72.7225 -72.7225 -72.7224 -72.7223
   -11.3016 -11.0660  -0.0651   0.0218   0.0272   0.0789   0.1183   0.2592
     0.4826   0.4956   0.5739   0.6031   1.9593   3.3403   3.8311   4.2045
     4.5614   4.6404   7.1248   9.3035  12.5330  14.4976  15.4717

     occupation numbers 
     1.0000   1.0000   1.0000   1.0000   1.0000   1.0000   1.0000   1.0000
     1.0000   1.0000   1.0000   1.0000   1.0000   1.0000   1.0000   1.0000
     1.0000   1.0000   1.0000   1.0000   1.0000   1.0000   1.0000   1.0000
     1.0000   1.0000   0.0000   0.0000   0.0000   0.0000   0.0000

          k = 0.0000 0.1925 0.2325 (  2552 PWs)   bands (ev):

  -118.5357-118.5357 -72.7256 -72.7255 -72.7225 -72.7225 -72.7224 -72.7223
   -11.2480 -11.1205  -0.0628   0.0037   0.0442   0.0661   0.0933   0.1401
     0.5122   0.5158   0.5581   0.5737   2.3424   3.0549   3.9791   4.3057
     4.3863   4.5415   7.6478   8.8077  12.9592  14.1425  15.3457

     occupation numbers 
     1.0000   1.0000   1.0000   1.0000   1.0000   1.0000   1.0000   1.0000
     1.0000   1.0000   1.0000   1.0000   1.0000   1.0000   1.0000   1.0000
     1.0000   1.0000   1.0000   1.0000   1.0000   1.0000   1.0000   1.0000
     1.0000   1.0000   0.0000   0.0000   0.0000   0.0000   0.0000

          k = 0.0000 0.1925-0.3100 (  2562 PWs)   bands (ev):

  -118.5357-118.5357 -72.7256 -72.7256 -72.7225 -72.7225 -72.7224 -72.7224
   -11.1844 -11.1844  -0.0375  -0.0375   0.0671   0.0671   0.0835   0.0835
     0.5378   0.5378   0.5438   0.5438   2.7152   2.7152   4.1784   4.1784
     4.4240   4.4240   8.2325   8.2325  13.5303  13.5303  15.4687

     occupation numbers 
     1.0000   1.0000   1.0000   1.0000   1.0000   1.0000   1.0000   1.0000
     1.0000   1.0000   1.0000   1.0000   1.0000   1.0000   1.0000   1.0000
     1.0000   1.0000   1.0000   1.0000   1.0000   1.0000   1.0000   1.0000
     1.0000   1.0000   0.0000   0.0000   0.0000   0.0000   0.0000

          k = 0.0000 0.2887 0.0000 (  2557 PWs)   bands (ev):

  -118.5357-118.5357 -72.7257 -72.7254 -72.7226 -72.7225 -72.7225 -72.7224
   -11.2664 -10.9859  -0.0574   0.0529   0.0581   0.1635   0.2179   0.4242
     0.4596   0.4888   0.5914   0.7147   1.6867   2.8990   3.3346   3.8872
     4.5494   4.6008   7.4433  10.3940  12.2833  13.4642  14.8041

     occupation numbers 
     1.0000   1.0000   1.0000   1.0000   1.0000   1.0000   1.0000   1.0000
     1.0000   1.0000   1.0000   1.0000   1.0000   1.0000   1.0000   1.0000
     1.0000   1.0000   1.0000   1.0000   1.0000   1.0000   1.0000   1.0000
     1.0000   1.0000   0.0000   0.0000   0.0000   0.0000   0.0000

          k = 0.0000 0.2887 0.0775 (  2559 PWs)   bands (ev):

  -118.5357-118.5357 -72.7257 -72.7255 -72.7226 -72.7225 -72.7225 -72.7224
   -11.2557 -10.9965  -0.0611   0.0514   0.0579   0.1579   0.2102   0.3937
     0.4530   0.4929   0.5877   0.6802   1.7938   2.9055   3.3315   3.9150
     4.5324   4.5741   7.5342  10.2554  12.3243  13.4910  14.7976

     occupation numbers 
     1.0000   1.0000   1.0000   1.0000   1.0000   1.0000   1.0000   1.0000
     1.0000   1.0000   1.0000   1.0000   1.0000   1.0000   1.0000   1.0000
     1.0000   1.0000   1.0000   1.0000   1.0000   1.0000   1.0000   1.0000
     1.0000   1.0000   0.0000   0.0000   0.0000   0.0000   0.0000

          k = 0.0000 0.2887 0.1550 (  2554 PWs)   bands (ev):

  -118.5357-118.5357 -72.7256 -72.7255 -72.7226 -72.7225 -72.7225 -72.7224
   -11.2252 -11.0268  -0.0687   0.0328   0.0726   0.1445   0.1888   0.2846
     0.4778   0.5046   0.5770   0.6319   2.0233   2.8505   3.4219   3.9940
     4.4484   4.4980   7.8059   9.8771  12.4712  13.5068  14.7824

     occupation numbers 
     1.0000   1.0000   1.0000   1.0000   1.0000   1.0000   1.0000   1.0000
     1.0000   1.0000   1.0000   1.0000   1.0000   1.0000   1.0000   1.0000
     1.0000   1.0000   1.0000   1.0000   1.0000   1.0000   1.0000   1.0000
     1.0000   1.0000   0.0000   0.0000   0.0000   0.0000   0.0000

          k = 0.0000 0.2887 0.2325 (  2553 PWs)   bands (ev):

  -118.5357-118.5357 -72.7256 -72.7255 -72.7226 -72.7225 -72.7224 -72.7224
   -11.1797 -11.0723  -0.0679  -0.0019   0.0960   0.1348   0.1587   0.1898
     0.5147   0.5217   0.5608   0.5926   2.2669   2.6940   3.6675   4.1111
     4.2584   4.3837   8.2378   9.3515  12.7358  13.3742  14.8623

     occupation numbers 
     1.0000   1.0000   1.0000   1.0000   1.0000   1.0000   1.0000   1.0000
     1.0000   1.0000   1.0000   1.0000   1.0000   1.0000   1.0000   1.0000
     1.0000   1.0000   1.0000   1.0000   1.0000   1.0000   1.0000   1.0000
     1.0000   1.0000   0.0000   0.0000   0.0000   0.0000   0.0000

          k = 0.0000 0.2887-0.3100 (  2538 PWs)   bands (ev):

  -118.5357-118.5357 -72.7255 -72.7255 -72.7225 -72.7225 -72.7224 -72.7224
   -11.1259 -11.1259  -0.0446  -0.0446   0.1260   0.1260   0.1453   0.1453
     0.5415   0.5415   0.5542   0.5542   2.4919   2.4919   3.9773   3.9773
     4.2480   4.2480   8.7770   8.7770  13.0731  13.0731  15.1431

     occupation numbers 
     1.0000   1.0000   1.0000   1.0000   1.0000   1.0000   1.0000   1.0000
     1.0000   1.0000   1.0000   1.0000   1.0000   1.0000   1.0000   1.0000
     1.0000   1.0000   1.0000   1.0000   1.0000   1.0000   1.0000   1.0000
     1.0000   1.0000   0.0000   0.0000   0.0000   0.0000   0.0000

          k = 0.0000 0.3849 0.0000 (  2553 PWs)   bands (ev):

  -118.5357-118.5357 -72.7257 -72.7255 -72.7226 -72.7225 -72.7225 -72.7224
   -11.1758 -10.9607  -0.0446   0.0831   0.0987   0.2585   0.2978   0.3895
     0.4805   0.5165   0.5967   0.7240   1.8641   2.3844   2.9566   3.6620
     4.3351   4.4681   8.2772  10.8968  12.1526  12.6560  14.2631

     occupation numbers 
     1.0000   1.0000   1.0000   1.0000   1.0000   1.0000   1.0000   1.0000
     1.0000   1.0000   1.0000   1.0000   1.0000   1.0000   1.0000   1.0000
     1.0000   1.0000   1.0000   1.0000   1.0000   1.0000   1.0000   1.0000
     1.0000   1.0000   0.0000   0.0000   0.0000   0.0000   0.0000

          k = 0.0000 0.3849 0.0775 (  2547 PWs)   bands (ev):

  -118.5357-118.5357 -72.7257 -72.7255 -72.7226 -72.7225 -72.7225 -72.7224
   -11.1673 -10.9686  -0.0496   0.0863   0.0902   0.2535   0.2886   0.3721
     0.4778   0.5191   0.5928   0.7017   1.8773   2.4195   2.9993   3.6938
     4.3441   4.4380   8.3294  10.7530  12.1373  12.6905  14.3036

     occupation numbers 
     1.0000   1.0000   1.0000   1.0000   1.0000   1.0000   1.0000   1.0000
     1.0000   1.0000   1.0000   1.0000   1.0000   1.0000   1.0000   1.0000
     1.0000   1.0000   1.0000   1.0000   1.0000   1.0000   1.0000   1.0000
     1.0000   1.0000   0.0000   0.0000   0.0000   0.0000   0.0000

          k = 0.0000 0.3849 0.1550 (  2545 PWs)   bands (ev):

  -118.5357-118.5357 -72.7256 -72.7255 -72.7226 -72.7225 -72.7225 -72.7224
   -11.1435 -10.9914  -0.0602   0.0521   0.1107   0.2415   0.2626   0.3114
     0.4961   0.5265   0.5822   0.6589   1.9292   2.3989   3.2113   3.7835
     4.3223   4.3523   8.5043  10.3605  12.1753  12.7114  14.4144

     occupation numbers 
     1.0000   1.0000   1.0000   1.0000   1.0000   1.0000   1.0000   1.0000
     1.0000   1.0000   1.0000   1.0000   1.0000   1.0000   1.0000   1.0000
     1.0000   1.0000   1.0000   1.0000   1.0000   1.0000   1.0000   1.0000
     1.0000   1.0000   0.0000   0.0000   0.0000   0.0000   0.0000

          k = 0.0000 0.3849 0.2325 (  2539 PWs)   bands (ev):

  -118.5357-118.5357 -72.7256 -72.7255 -72.7226 -72.7225 -72.7225 -72.7224
   -11.1081 -11.0257  -0.0629   0.0025   0.1427   0.2250   0.2298   0.2547
     0.5326   0.5380   0.5678   0.6161   2.0227   2.2842   3.5634   3.9162
     4.1891   4.2235   8.8292   9.8338  12.3032  12.6364  14.6507

     occupation numbers 
     1.0000   1.0000   1.0000   1.0000   1.0000   1.0000   1.0000   1.0000
     1.0000   1.0000   1.0000   1.0000   1.0000   1.0000   1.0000   1.0000
     1.0000   1.0000   1.0000   1.0000   1.0000   1.0000   1.0000   1.0000
     1.0000   1.0000   0.0000   0.0000   0.0000   0.0000   0.0000

          k = 0.0000 0.3849-0.3100 (  2550 PWs)   bands (ev):

  -118.5357-118.5357 -72.7256 -72.7256 -72.7226 -72.7226 -72.7224 -72.7224
   -11.0667 -11.0667  -0.0426  -0.0426   0.1826   0.1826   0.2303   0.2303
     0.5524   0.5524   0.5740   0.5740   2.1468   2.1468   3.9208   3.9208
     4.0706   4.0706   9.2925   9.2925  12.4780  12.4780  15.0720

     occupation numbers 
     1.0000   1.0000   1.0000   1.0000   1.0000   1.0000   1.0000   1.0000
     1.0000   1.0000   1.0000   1.0000   1.0000   1.0000   1.0000   1.0000
     1.0000   1.0000   1.0000   1.0000   1.0000   1.0000   1.0000   1.0000
     1.0000   1.0000   0.0000   0.0000   0.0000   0.0000   0.0000

          k = 0.0000 0.4811 0.0000 (  2537 PWs)   bands (ev):

  -118.5357-118.5357 -72.7257 -72.7254 -72.7226 -72.7226 -72.7225 -72.7224
   -11.1001 -10.9504  -0.0328   0.0988   0.1669   0.3353   0.3583   0.3865
     0.5159   0.5489   0.6021   0.7077   1.7265   2.1908   2.8327   3.4950
     4.1094   4.3684   9.0216  11.2396  11.5992  12.2011  14.1317

     occupation numbers 
     1.0000   1.0000   1.0000   1.0000   1.0000   1.0000   1.0000   1.0000
     1.0000   1.0000   1.0000   1.0000   1.0000   1.0000   1.0000   1.0000
     1.0000   1.0000   1.0000   1.0000   1.0000   1.0000   1.0000   1.0000
     1.0000   1.0000   0.0000   0.0000   0.0000   0.0000   0.0000

          k = 0.0000 0.4811 0.0775 (  2544 PWs)   bands (ev):

  -118.5357-118.5357 -72.7256 -72.7255 -72.7226 -72.7226 -72.7225 -72.7224
   -11.0941 -10.9557  -0.0390   0.1074   0.1432   0.3286   0.3477   0.3812
     0.5227   0.5500   0.5982   0.6971   1.7007   2.1694   2.9433   3.5298
     4.1437   4.3359   9.0381  11.0565  11.6690  12.1932  14.1613

     occupation numbers 
     1.0000   1.0000   1.0000   1.0000   1.0000   1.0000   1.0000   1.0000
     1.0000   1.0000   1.0000   1.0000   1.0000   1.0000   1.0000   1.0000
     1.0000   1.0000   1.0000   1.0000   1.0000   1.0000   1.0000   1.0000
     1.0000   1.0000   0.0000   0.0000   0.0000   0.0000   0.0000

          k = 0.0000 0.4811 0.1550 (  2535 PWs)   bands (ev):

  -118.5357-118.5357 -72.7256 -72.7255 -72.7226 -72.7226 -72.7225 -72.7224
   -11.0770 -10.9710  -0.0520   0.0830   0.1326   0.3166   0.3173   0.3631
     0.5440   0.5535   0.5888   0.6712   1.6850   2.0766   3.2395   3.6278
     4.1881   4.2434   9.1193  10.6546  11.7773  12.1611  14.2776

     occupation numbers 
     1.0000   1.0000   1.0000   1.0000   1.0000   1.0000   1.0000   1.0000
     1.0000   1.0000   1.0000   1.0000   1.0000   1.0000   1.0000   1.0000
     1.0000   1.0000   1.0000   1.0000   1.0000   1.0000   1.0000   1.0000
     1.0000   1.0000   0.0000   0.0000   0.0000   0.0000   0.0000

          k = 0.0000 0.4811 0.2325 (  2533 PWs)   bands (ev):

  -118.5357-118.5357 -72.7256 -72.7255 -72.7226 -72.7226 -72.7224 -72.7224
   -11.0518 -10.9944  -0.0571   0.0132   0.1719   0.2722   0.3118   0.3392
     0.5594   0.5743   0.5777   0.6396   1.7265   1.9444   3.6067   3.7720
     4.1045   4.1357   9.3287  10.1655  11.8877  12.0932  14.5556

     occupation numbers 
     1.0000   1.0000   1.0000   1.0000   1.0000   1.0000   1.0000   1.0000
     1.0000   1.0000   1.0000   1.0000   1.0000   1.0000   1.0000   1.0000
     1.0000   1.0000   1.0000   1.0000   1.0000   1.0000   1.0000   1.0000
     1.0000   1.0000   0.0000   0.0000   0.0000   0.0000   0.0000

          k = 0.0000 0.4811-0.3100 (  2528 PWs)   bands (ev):

  -118.5357-118.5357 -72.7255 -72.7255 -72.7226 -72.7226 -72.7224 -72.7224
   -11.0227 -11.0227  -0.0376  -0.0376   0.2208   0.2208   0.3200   0.3200
     0.5676   0.5676   0.6070   0.6070   1.8191   1.8191   3.9326   3.9326
     3.9393   3.9393   9.6927   9.6927  11.9965  11.9965  15.0341

     occupation numbers 
     1.0000   1.0000   1.0000   1.0000   1.0000   1.0000   1.0000   1.0000
     1.0000   1.0000   1.0000   1.0000   1.0000   1.0000   1.0000   1.0000
     1.0000   1.0000   1.0000   1.0000   1.0000   1.0000   1.0000   1.0000
     1.0000   1.0000   0.0000   0.0000   0.0000   0.0000   0.0000

          k = 0.0000-0.5774 0.0000 (  2522 PWs)   bands (ev):

  -118.5357-118.5357 -72.7256 -72.7254 -72.7227 -72.7225 -72.7225 -72.7223
   -11.0679 -10.9509  -0.0293   0.1031   0.2172   0.3075   0.3804   0.4413
     0.5640   0.5793   0.6046   0.6456   1.6039   2.1296   2.8710   3.4330
     3.9971   4.3313   9.3910  11.2466  11.4200  11.9828  14.1184

     occupation numbers 
     1.0000   1.0000   1.0000   1.0000   1.0000   1.0000   1.0000   1.0000
     1.0000   1.0000   1.0000   1.0000   1.0000   1.0000   1.0000   1.0000
     1.0000   1.0000   1.0000   1.0000   1.0000   1.0000   1.0000   1.0000
     1.0000   1.0000   0.0000   0.0000   0.0000   0.0000   0.0000

          k = 0.0000-0.5774 0.0775 (  2532 PWs)   bands (ev):

  -118.5357-118.5357 -72.7256 -72.7255 -72.7226 -72.7225 -72.7225 -72.7224
   -11.0631 -10.9550  -0.0359   0.1124   0.1799   0.3094   0.3692   0.4449
     0.5646   0.5809   0.6007   0.6458   1.5832   2.0746   2.9951   3.4689
     4.0433   4.2980   9.3855  11.0616  11.5255  11.9631  14.1324

     occupation numbers 
     1.0000   1.0000   1.0000   1.0000   1.0000   1.0000   1.0000   1.0000
     1.0000   1.0000   1.0000   1.0000   1.0000   1.0000   1.0000   1.0000
     1.0000   1.0000   1.0000   1.0000   1.0000   1.0000   1.0000   1.0000
     1.0000   1.0000   0.0000   0.0000   0.0000   0.0000   0.0000

          k = 0.0000-0.5774 0.1550 (  2546 PWs)   bands (ev):

  -118.5357-118.5357 -72.7256 -72.7255 -72.7227 -72.7226 -72.7226 -72.7224
   -11.0494 -10.9666  -0.0496   0.0993   0.1393   0.3167   0.3369   0.4308
     0.5665   0.5918   0.5942   0.6453   1.5643   1.9450   3.2951   3.5701
     4.1194   4.2031   9.4112  10.7104  11.6431  11.9164  14.2330

     occupation numbers 
     1.0000   1.0000   1.0000   1.0000   1.0000   1.0000   1.0000   1.0000
     1.0000   1.0000   1.0000   1.0000   1.0000   1.0000   1.0000   1.0000
     1.0000   1.0000   1.0000   1.0000   1.0000   1.0000   1.0000   1.0000
     1.0000   1.0000   0.0000   0.0000   0.0000   0.0000   0.0000

          k = 0.0000-0.5774 0.2325 (  2544 PWs)   bands (ev):

  -118.5357-118.5357 -72.7256 -72.7255 -72.7227 -72.7227 -72.7225 -72.7224
   -11.0293 -10.9845  -0.0552   0.0188   0.1813   0.2887   0.3329   0.3959
     0.5699   0.5825   0.6151   0.6414   1.5938   1.7998   3.6467   3.7187
     4.0604   4.1083   9.5536  10.2769  11.7332  11.8613  14.5156

     occupation numbers 
     1.0000   1.0000   1.0000   1.0000   1.0000   1.0000   1.0000   1.0000
     1.0000   1.0000   1.0000   1.0000   1.0000   1.0000   1.0000   1.0000
     1.0000   1.0000   1.0000   1.0000   1.0000   1.0000   1.0000   1.0000
     1.0000   1.0000   0.0000   0.0000   0.0000   0.0000   0.0000

          k = 0.0000-0.5774-0.3100 (  2544 PWs)   bands (ev):

  -118.5357-118.5357 -72.7256 -72.7256 -72.7227 -72.7227 -72.7224 -72.7224
   -11.0065 -11.0065  -0.0353  -0.0353   0.2336   0.2336   0.3599   0.3599
     0.5751   0.5751   0.6318   0.6318   1.6762   1.6762   3.8908   3.8908
     3.9440   3.9440   9.8571   9.8571  11.8025  11.8025  15.0104

     occupation numbers 
     1.0000   1.0000   1.0000   1.0000   1.0000   1.0000   1.0000   1.0000
     1.0000   1.0000   1.0000   1.0000   1.0000   1.0000   1.0000   1.0000
     1.0000   1.0000   1.0000   1.0000   1.0000   1.0000   1.0000   1.0000
     1.0000   1.0000   0.0000   0.0000   0.0000   0.0000   0.0000

          k = 0.0833 0.1443 0.0000 (  2557 PWs)   bands (ev):

  -118.5357-118.5357 -72.7258 -72.7255 -72.7225 -72.7224 -72.7224 -72.7223
   -11.3683 -11.0243  -0.0495  -0.0000   0.0218   0.0907   0.1286   0.4574
     0.4723   0.4790   0.5854   0.6785   1.4102   3.7980   3.8273   4.2016
     4.7404   4.7437   6.3906   9.6063  12.1671  14.8851  15.8648

     occupation numbers 
     1.0000   1.0000   1.0000   1.0000   1.0000   1.0000   1.0000   1.0000
     1.0000   1.0000   1.0000   1.0000   1.0000   1.0000   1.0000   1.0000
     1.0000   1.0000   1.0000   1.0000   1.0000   1.0000   1.0000   1.0000
     1.0002   1.0003   0.0000   0.0000   0.0000   0.0000   0.0000

          k = 0.0833 0.1443 0.0775 (  2554 PWs)   bands (ev):

  -118.5357-118.5357 -72.7257 -72.7254 -72.7225 -72.7224 -72.7224 -72.7223
   -11.3555 -11.0376  -0.0526   0.0027   0.0211   0.0834   0.1222   0.4082
     0.4650   0.4805   0.5823   0.6344   1.5794   3.7096   3.8587   4.2046
     4.7051   4.7214   6.5499   9.4876  12.2579  14.8850  15.8695

     occupation numbers 
     1.0000   1.0000   1.0000   1.0000   1.0000   1.0000   1.0000   1.0000
     1.0000   1.0000   1.0000   1.0000   1.0000   1.0000   1.0000   1.0000
     1.0000   1.0000   1.0000   1.0000   1.0000   1.0000   1.0000   1.0000
     1.0001   1.0001   0.0000   0.0000   0.0000   0.0000   0.0000

          k = 0.0833 0.1443 0.1550 (  2558 PWs)   bands (ev):

  -118.5357-118.5357 -72.7257 -72.7255 -72.7225 -72.7225 -72.7224 -72.7223
   -11.3187 -11.0754  -0.0590   0.0103   0.0232   0.0625   0.1051   0.2543
     0.4854   0.4949   0.5730   0.5964   1.9359   3.4649   3.9499   4.2469
     4.6032   4.6578   6.9596   9.1560  12.5309  14.7991  15.8520

     occupation numbers 
     1.0000   1.0000   1.0000   1.0000   1.0000   1.0000   1.0000   1.0000
     1.0000   1.0000   1.0000   1.0000   1.0000   1.0000   1.0000   1.0000
     1.0000   1.0000   1.0000   1.0000   1.0000   1.0000   1.0000   1.0000
     1.0000   1.0000   0.0000   0.0000   0.0000   0.0000   0.0000

          k = 0.0833 0.1443 0.2325 (  2545 PWs)   bands (ev):

  -118.5357-118.5357 -72.7256 -72.7255 -72.7224 -72.7224 -72.7224 -72.7223
   -11.2635 -11.1318  -0.0568   0.0106   0.0336   0.0379   0.0834   0.1299
     0.5131   0.5153   0.5576   0.5701   2.3433   3.1299   4.0910   4.3295
     4.4543   4.5629   7.5047   8.6701  12.9849  14.3150  15.5573

     occupation numbers 
     1.0000   1.0000   1.0000   1.0000   1.0000   1.0000   1.0000   1.0000
     1.0000   1.0000   1.0000   1.0000   1.0000   1.0000   1.0000   1.0000
     1.0000   1.0000   1.0000   1.0000   1.0000   1.0000   1.0000   1.0000
     1.0000   1.0000   0.0000   0.0000   0.0000   0.0000   0.0000

          k = 0.0833 0.1443-0.3100 (  2540 PWs)   bands (ev):

  -118.5357-118.5357 -72.7256 -72.7256 -72.7224 -72.7224 -72.7223 -72.7223
   -11.1979 -11.1979  -0.0306  -0.0306   0.0446   0.0446   0.0759   0.0759
     0.5373   0.5373   0.5427   0.5427   2.7493   2.7493   4.2619   4.2619
     4.4533   4.4533   8.0978   8.0978  13.6052  13.6052  15.6236

     occupation numbers 
     1.0000   1.0000   1.0000   1.0000   1.0000   1.0000   1.0000   1.0000
     1.0000   1.0000   1.0000   1.0000   1.0000   1.0000   1.0000   1.0000
     1.0000   1.0000   1.0000   1.0000   1.0000   1.0000   1.0000   1.0000
     1.0000   1.0000   0.0000   0.0000   0.0000   0.0000   0.0000

          k = 0.0833 0.2406 0.0000 (  2553 PWs)   bands (ev):

  -118.5357-118.5357 -72.7258 -72.7254 -72.7225 -72.7225 -72.7224 -72.7223
   -11.2976 -10.9967  -0.0470   0.0277   0.0554   0.1260   0.1950   0.4384
     0.4569   0.4797   0.5892   0.7085   1.6035   3.1974   3.4281   3.9682
     4.6099   4.6171   7.1623  10.1934  12.2771  13.9106  15.0673

     occupation numbers 
     1.0000   1.0000   1.0000   1.0000   1.0000   1.0000   1.0000   1.0000
     1.0000   1.0000   1.0000   1.0000   1.0000   1.0000   1.0000   1.0000
     1.0000   1.0000   1.0000   1.0000   1.0000   1.0000   1.0000   1.0000
     1.0000   1.0000   0.0000   0.0000   0.0000   0.0000   0.0000

          k = 0.0833 0.2406 0.0775 (  2549 PWs)   bands (ev):

  -118.5357-118.5357 -72.7257 -72.7254 -72.7225 -72.7225 -72.7224 -72.7224
   -11.2862 -11.0082  -0.0507   0.0300   0.0530   0.1195   0.1880   0.3980
     0.4513   0.4870   0.5856   0.6705   1.7332   3.1720   3.4474   3.9817
     4.5799   4.5989   7.2689  10.0598  12.3380  13.9211  15.0952

     occupation numbers 
     1.0000   1.0000   1.0000   1.0000   1.0000   1.0000   1.0000   1.0000
     1.0000   1.0000   1.0000   1.0000   1.0000   1.0000   1.0000   1.0000
     1.0000   1.0000   1.0000   1.0000   1.0000   1.0000   1.0000   1.0000
     1.0000   1.0000   0.0000   0.0000   0.0000   0.0000   0.0000

          k = 0.0833 0.2406 0.1550 (  2554 PWs)   bands (ev):

  -118.5357-118.5357 -72.7257 -72.7255 -72.7226 -72.7225 -72.7224 -72.7224
   -11.2537 -11.0409  -0.0586   0.0304   0.0540   0.1027   0.1691   0.2726
     0.4776   0.5003   0.5753   0.6229   2.0128   3.0502   3.5634   4.0359
     4.4920   4.5207   7.5762   9.6932  12.5331  13.9035  15.1099

     occupation numbers 
     1.0000   1.0000   1.0000   1.0000   1.0000   1.0000   1.0000   1.0000
     1.0000   1.0000   1.0000   1.0000   1.0000   1.0000   1.0000   1.0000
     1.0000   1.0000   1.0000   1.0000   1.0000   1.0000   1.0000   1.0000
     1.0000   1.0000   0.0000   0.0000   0.0000   0.0000   0.0000

          k = 0.0833 0.2406 0.2325 (  2556 PWs)   bands (ev):

  -118.5357-118.5357 -72.7256 -72.7255 -72.7226 -72.7225 -72.7224 -72.7224
   -11.2050 -11.0898  -0.0580   0.0080   0.0674   0.0893   0.1447   0.1689
     0.5129   0.5187   0.5593   0.5866   2.3171   2.8461   3.7819   4.1307
     4.3183   4.4030   8.0415   9.1764  12.8682  13.7116  15.0750

     occupation numbers 
     1.0000   1.0000   1.0000   1.0000   1.0000   1.0000   1.0000   1.0000
     1.0000   1.0000   1.0000   1.0000   1.0000   1.0000   1.0000   1.0000
     1.0000   1.0000   1.0000   1.0000   1.0000   1.0000   1.0000   1.0000
     1.0000   1.0000   0.0000   0.0000   0.0000   0.0000   0.0000

          k = 0.0833 0.2406-0.3100 (  2548 PWs)   bands (ev):

  -118.5357-118.5357 -72.7256 -72.7256 -72.7225 -72.7225 -72.7224 -72.7224
   -11.1475 -11.1475  -0.0340  -0.0340   0.0841   0.0841   0.1314   0.1314
     0.5387   0.5387   0.5513   0.5513   2.5981   2.5981   4.0466   4.0466
     4.2756   4.2756   8.5992   8.5992  13.3043  13.3043  15.1583

     occupation numbers 
     1.0000   1.0000   1.0000   1.0000   1.0000   1.0000   1.0000   1.0000
     1.0000   1.0000   1.0000   1.0000   1.0000   1.0000   1.0000   1.0000
     1.0000   1.0000   1.0000   1.0000   1.0000   1.0000   1.0000   1.0000
     1.0000   1.0000   0.0000   0.0000   0.0000   0.0000   0.0000

          k = 0.0833 0.3368 0.0000 (  2549 PWs)   bands (ev):

  -118.5357-118.5357 -72.7257 -72.7255 -72.7226 -72.7225 -72.7225 -72.7224
   -11.2103 -10.9689  -0.0330   0.0600   0.0908   0.1989   0.2757   0.4114
     0.4622   0.5007   0.5945   0.7238   1.8197   2.6278   3.0666   3.6843
     4.4313   4.4576   7.9912  10.7441  12.3521  13.0170  14.4295

     occupation numbers 
     1.0000   1.0000   1.0000   1.0000   1.0000   1.0000   1.0000   1.0000
     1.0000   1.0000   1.0000   1.0000   1.0000   1.0000   1.0000   1.0000
     1.0000   1.0000   1.0000   1.0000   1.0000   1.0000   1.0000   1.0000
     1.0000   1.0000   0.0000   0.0000   0.0000   0.0000   0.0000

          k = 0.0833 0.3368 0.0775 (  2549 PWs)   bands (ev):

  -118.5357-118.5357 -72.7257 -72.7255 -72.7226 -72.7226 -72.7225 -72.7224
   -11.2010 -10.9779  -0.0373   0.0608   0.0867   0.1934   0.2672   0.3876
     0.4539   0.5079   0.5907   0.6975   1.8793   2.6389   3.1017   3.7088
     4.4146   4.4439   8.0596  10.6079  12.3368  13.0500  14.4849

     occupation numbers 
     1.0000   1.0000   1.0000   1.0000   1.0000   1.0000   1.0000   1.0000
     1.0000   1.0000   1.0000   1.0000   1.0000   1.0000   1.0000   1.0000
     1.0000   1.0000   1.0000   1.0000   1.0000   1.0000   1.0000   1.0000
     1.0000   1.0000   0.0000   0.0000   0.0000   0.0000   0.0000

          k = 0.0833 0.3368 0.1550 (  2546 PWs)   bands (ev):

  -118.5357-118.5357 -72.7256 -72.7255 -72.7226 -72.7225 -72.7225 -72.7224
   -11.1745 -11.0037  -0.0469   0.0470   0.0935   0.1805   0.2437   0.2970
     0.4800   0.5191   0.5805   0.6521   2.0097   2.5928   3.2821   3.7863
     4.3270   4.4017   8.2752  10.2273  12.3834  13.0735  14.5683

     occupation numbers 
     1.0000   1.0000   1.0000   1.0000   1.0000   1.0000   1.0000   1.0000
     1.0000   1.0000   1.0000   1.0000   1.0000   1.0000   1.0000   1.0000
     1.0000   1.0000   1.0000   1.0000   1.0000   1.0000   1.0000   1.0000
     1.0000   1.0000   0.0000   0.0000   0.0000   0.0000   0.0000

          k = 0.0833 0.3368 0.2325 (  2549 PWs)   bands (ev):

  -118.5357-118.5357 -72.7256 -72.7255 -72.7226 -72.7226 -72.7225 -72.7224
   -11.1349 -11.0425  -0.0495   0.0109   0.1177   0.1680   0.2093   0.2202
     0.5203   0.5329   0.5667   0.6096   2.1583   2.4663   3.5981   3.9107
     4.1818   4.2673   8.6459   9.7007  12.5481  12.9869  14.6756

     occupation numbers 
     1.0000   1.0000   1.0000   1.0000   1.0000   1.0000   1.0000   1.0000
     1.0000   1.0000   1.0000   1.0000   1.0000   1.0000   1.0000   1.0000
     1.0000   1.0000   1.0000   1.0000   1.0000   1.0000   1.0000   1.0000
     1.0000   1.0000   0.0000   0.0000   0.0000   0.0000   0.0000

          k = 0.0833 0.3368-0.3100 (  2554 PWs)   bands (ev):

  -118.5357-118.5357 -72.7256 -72.7256 -72.7226 -72.7226 -72.7225 -72.7225
   -11.0885 -11.0885  -0.0297  -0.0297   0.1481   0.1481   0.1927   0.1927
     0.5460   0.5460   0.5690   0.5690   2.3128   2.3128   3.9225   3.9225
     4.0903   4.0903   9.1430   9.1430  12.7812  12.7812  14.9187

     occupation numbers 
     1.0000   1.0000   1.0000   1.0000   1.0000   1.0000   1.0000   1.0000
     1.0000   1.0000   1.0000   1.0000   1.0000   1.0000   1.0000   1.0000
     1.0000   1.0000   1.0000   1.0000   1.0000   1.0000   1.0000   1.0000
     1.0000   1.0000   0.0000   0.0000   0.0000   0.0000   0.0000

          k = 0.0833 0.4330 0.0000 (  2538 PWs)   bands (ev):

  -118.5357-118.5357 -72.7257 -72.7254 -72.7226 -72.7226 -72.7225 -72.7224
   -11.1261 -10.9521  -0.0220   0.0889   0.1523   0.2959   0.3482   0.3811
     0.4901   0.5286   0.6019   0.7266   1.8451   2.2690   2.8635   3.4483
     4.2001   4.3251   8.8001  11.1355  12.0247  12.4160  14.1896

     occupation numbers 
     1.0000   1.0000   1.0000   1.0000   1.0000   1.0000   1.0000   1.0000
     1.0000   1.0000   1.0000   1.0000   1.0000   1.0000   1.0000   1.0000
     1.0000   1.0000   1.0000   1.0000   1.0000   1.0000   1.0000   1.0000
     1.0000   1.0000   0.0000   0.0000   0.0000   0.0000   0.0000

          k = 0.0833 0.4330 0.0775 (  2541 PWs)   bands (ev):

  -118.5357-118.5357 -72.7256 -72.7255 -72.7226 -72.7226 -72.7225 -72.7224
   -11.1191 -10.9584  -0.0265   0.0927   0.1377   0.2904   0.3379   0.3673
     0.4886   0.5354   0.5986   0.7116   1.8247   2.2759   2.9517   3.4835
     4.2199   4.2967   8.8350  11.0058  11.9980  12.4344  14.2178

     occupation numbers 
     1.0000   1.0000   1.0000   1.0000   1.0000   1.0000   1.0000   1.0000
     1.0000   1.0000   1.0000   1.0000   1.0000   1.0000   1.0000   1.0000
     1.0000   1.0000   1.0000   1.0000   1.0000   1.0000   1.0000   1.0000
     1.0000   1.0000   0.0000   0.0000   0.0000   0.0000   0.0000

          k = 0.0833 0.4330 0.1550 (  2536 PWs)   bands (ev):

  -118.5357-118.5357 -72.7256 -72.7255 -72.7226 -72.7226 -72.7225 -72.7224
   -11.0995 -10.9764  -0.0370   0.0780   0.1279   0.2758   0.3117   0.3227
     0.5074   0.5454   0.5911   0.6775   1.8232   2.2163   3.2177   3.5883
     4.1718   4.2708   8.9623  10.6361  12.0133  12.4340  14.2823

     occupation numbers 
     1.0000   1.0000   1.0000   1.0000   1.0000   1.0000   1.0000   1.0000
     1.0000   1.0000   1.0000   1.0000   1.0000   1.0000   1.0000   1.0000
     1.0000   1.0000   1.0000   1.0000   1.0000   1.0000   1.0000   1.0000
     1.0000   1.0000   0.0000   0.0000   0.0000   0.0000   0.0000

          k = 0.0833 0.4330 0.2325 (  2537 PWs)   bands (ev):

  -118.5357-118.5357 -72.7256 -72.7255 -72.7226 -72.7226 -72.7225 -72.7224
   -11.0705 -11.0038  -0.0411   0.0237   0.1592   0.2508   0.2797   0.2852
     0.5386   0.5548   0.5857   0.6385   1.8771   2.0981   3.5518   3.7596
     4.0255   4.1986   9.2254  10.1357  12.1085  12.3664  14.4436

     occupation numbers 
     1.0000   1.0000   1.0000   1.0000   1.0000   1.0000   1.0000   1.0000
     1.0000   1.0000   1.0000   1.0000   1.0000   1.0000   1.0000   1.0000
     1.0000   1.0000   1.0000   1.0000   1.0000   1.0000   1.0000   1.0000
     1.0000   1.0000   0.0000   0.0000   0.0000   0.0000   0.0000

          k = 0.0833 0.4330-0.3100 (  2538 PWs)   bands (ev):

  -118.5357-118.5357 -72.7256 -72.7256 -72.7226 -72.7226 -72.7225 -72.7225
   -11.0368 -11.0368  -0.0225  -0.0225   0.2047   0.2047   0.2717   0.2717
     0.5564   0.5564   0.6022   0.6022   1.9753   1.9753   3.8150   3.8150
     4.0093   4.0093   9.6334   9.6334  12.2424  12.2424  14.7666

     occupation numbers 
     1.0000   1.0000   1.0000   1.0000   1.0000   1.0000   1.0000   1.0000
     1.0000   1.0000   1.0000   1.0000   1.0000   1.0000   1.0000   1.0000
     1.0000   1.0000   1.0000   1.0000   1.0000   1.0000   1.0000   1.0000
     1.0000   1.0000   0.0000   0.0000   0.0000   0.0000   0.0000

          k = 0.0833 0.5292 0.0000 (  2539 PWs)   bands (ev):

  -118.5357-118.5357 -72.7256 -72.7254 -72.7226 -72.7226 -72.7226 -72.7224
   -11.0690 -10.9504  -0.0190   0.1007   0.2271   0.3340   0.3672   0.4264
     0.5354   0.5509   0.6147   0.6834   1.6618   2.1534   2.8682   3.3436
     3.9990   4.2480   9.4264  11.3162  11.5563  12.0877  14.1431

     occupation numbers 
     1.0000   1.0000   1.0000   1.0000   1.0000   1.0000   1.0000   1.0000
     1.0000   1.0000   1.0000   1.0000   1.0000   1.0000   1.0000   1.0000
     1.0000   1.0000   1.0000   1.0000   1.0000   1.0000   1.0000   1.0000
     1.0000   1.0000   0.0000   0.0000   0.0000   0.0000   0.0000

          k = 0.0833 0.5292 0.0775 (  2536 PWs)   bands (ev):

  -118.5357-118.5357 -72.7256 -72.7255 -72.7226 -72.7226 -72.7225 -72.7224
   -11.0640 -10.9544  -0.0234   0.1073   0.1936   0.3300   0.3589   0.4238
     0.5389   0.5535   0.6140   0.6802   1.6402   2.1064   2.9785   3.3898
     4.0413   4.2155   9.4313  11.1649  11.6189  12.0700  14.1240

     occupation numbers 
     1.0000   1.0000   1.0000   1.0000   1.0000   1.0000   1.0000   1.0000
     1.0000   1.0000   1.0000   1.0000   1.0000   1.0000   1.0000   1.0000
     1.0000   1.0000   1.0000   1.0000   1.0000   1.0000   1.0000   1.0000
     1.0000   1.0000   0.0000   0.0000   0.0000   0.0000   0.0000

          k = 0.0833 0.5292 0.1550 (  2538 PWs)   bands (ev):

  -118.5357-118.5357 -72.7256 -72.7255 -72.7226 -72.7226 -72.7225 -72.7224
   -11.0502 -10.9662  -0.0338   0.1118   0.1357   0.3257   0.3332   0.4019
     0.5496   0.5600   0.6156   0.6714   1.6210   1.9884   3.2356   3.5306
     4.0638   4.1675   9.4800  10.8245  11.7099  12.0235  14.1405

     occupation numbers 
     1.0000   1.0000   1.0000   1.0000   1.0000   1.0000   1.0000   1.0000
     1.0000   1.0000   1.0000   1.0000   1.0000   1.0000   1.0000   1.0000
     1.0000   1.0000   1.0000   1.0000   1.0000   1.0000   1.0000   1.0000
     1.0000   1.0000   0.0000   0.0000   0.0000   0.0000   0.0000

          k = 0.0833 0.5292 0.2325 (  2539 PWs)   bands (ev):

  -118.5357-118.5357 -72.7256 -72.7256 -72.7226 -72.7226 -72.7225 -72.7224
   -11.0299 -10.9844  -0.0376   0.0363   0.1731   0.2844   0.3322   0.3711
     0.5578   0.5649   0.6260   0.6583   1.6507   1.8509   3.5012   3.7631
     3.9245   4.1493   9.6441  10.3883  11.7976  11.9579  14.3103

     occupation numbers 
     1.0000   1.0000   1.0000   1.0000   1.0000   1.0000   1.0000   1.0000
     1.0000   1.0000   1.0000   1.0000   1.0000   1.0000   1.0000   1.0000
     1.0000   1.0000   1.0000   1.0000   1.0000   1.0000   1.0000   1.0000
     1.0000   1.0000   0.0000   0.0000   0.0000   0.0000   0.0000

          k = 0.0833 0.5292-0.3100 (  2538 PWs)   bands (ev):

  -118.5357-118.5357 -72.7256 -72.7256 -72.7226 -72.7226 -72.7224 -72.7224
   -11.0067 -11.0067  -0.0173  -0.0173   0.2268   0.2268   0.3468   0.3468
     0.5631   0.5631   0.6424   0.6424   1.7317   1.7317   3.7260   3.7260
     4.0098   4.0098   9.9610   9.9610  11.8809  11.8809  14.6644

     occupation numbers 
     1.0000   1.0000   1.0000   1.0000   1.0000   1.0000   1.0000   1.0000
     1.0000   1.0000   1.0000   1.0000   1.0000   1.0000   1.0000   1.0000
     1.0000   1.0000   1.0000   1.0000   1.0000   1.0000   1.0000   1.0000
     1.0000   1.0000   0.0000   0.0000   0.0000   0.0000   0.0000

          k = 0.1667 0.2887 0.0000 (  2553 PWs)   bands (ev):

  -118.5357-118.5357 -72.7257 -72.7255 -72.7226 -72.7226 -72.7224 -72.7224
   -11.2227 -10.9722  -0.0020   0.0261   0.1001   0.1661   0.2700   0.4277
     0.4477   0.4933   0.5935   0.7241   1.7948   2.8284   3.0326   3.6759
     4.4119   4.4688   7.9081  10.6977  12.4381  13.2833  14.4529

     occupation numbers 
     1.0000   1.0000   1.0000   1.0000   1.0000   1.0000   1.0000   1.0000
     1.0000   1.0000   1.0000   1.0000   1.0000   1.0000   1.0000   1.0000
     1.0000   1.0000   1.0000   1.0000   1.0000   1.0000   1.0000   1.0000
     1.0000   1.0000   0.0000   0.0000   0.0000   0.0000   0.0000

          k = 0.1667 0.2887 0.0775 (  2550 PWs)   bands (ev):

  -118.5357-118.5357 -72.7256 -72.7255 -72.7226 -72.7226 -72.7224 -72.7224
   -11.2130 -10.9816  -0.0079   0.0288   0.0965   0.1607   0.2617   0.3952
     0.4412   0.5042   0.5899   0.6966   1.8709   2.7933   3.1123   3.6867
     4.3801   4.4679   7.9829  10.5660  12.4278  13.2900  14.5862

     occupation numbers 
     1.0000   1.0000   1.0000   1.0000   1.0000   1.0000   1.0000   1.0000
     1.0000   1.0000   1.0000   1.0000   1.0000   1.0000   1.0000   1.0000
     1.0000   1.0000   1.0000   1.0000   1.0000   1.0000   1.0000   1.0000
     1.0000   1.0000   0.0000   0.0000   0.0000   0.0000   0.0000

          k = 0.1667 0.2887 0.1550 (  2539 PWs)   bands (ev):

  -118.5357-118.5357 -72.7256 -72.7255 -72.7225 -72.7225 -72.7224 -72.7224
   -11.1856 -11.0084  -0.0215   0.0322   0.0938   0.1477   0.2390   0.2868
     0.4752   0.5174   0.5800   0.6510   2.0356   2.6931   3.3374   3.7386
     4.2904   4.4229   8.2142  10.1935  12.4855  13.2838  14.7968

     occupation numbers 
     1.0000   1.0000   1.0000   1.0000   1.0000   1.0000   1.0000   1.0000
     1.0000   1.0000   1.0000   1.0000   1.0000   1.0000   1.0000   1.0000
     1.0000   1.0000   1.0000   1.0000   1.0000   1.0000   1.0000   1.0000
     1.0000   1.0000   0.0000   0.0000   0.0000   0.0000   0.0000

          k = 0.1667 0.2887 0.2325 (  2545 PWs)   bands (ev):

  -118.5357-118.5357 -72.7256 -72.7255 -72.7226 -72.7226 -72.7224 -72.7224
   -11.1447 -11.0487  -0.0283   0.0194   0.1008   0.1352   0.1992   0.2085
     0.5175   0.5314   0.5668   0.6089   2.2135   2.5490   3.6544   3.8433
     4.1601   4.2731   8.6012   9.6701  12.6770  13.1863  14.8209

     occupation numbers 
     1.0000   1.0000   1.0000   1.0000   1.0000   1.0000   1.0000   1.0000
     1.0000   1.0000   1.0000   1.0000   1.0000   1.0000   1.0000   1.0000
     1.0000   1.0000   1.0000   1.0000   1.0000   1.0000   1.0000   1.0000
     1.0000   1.0000   0.0000   0.0000   0.0000   0.0000   0.0000

          k = 0.1667 0.2887-0.3100 (  2548 PWs)   bands (ev):

  -118.5357-118.5357 -72.7256 -72.7256 -72.7226 -72.7226 -72.7224 -72.7224
   -11.0966 -11.0966  -0.0120  -0.0120   0.1182   0.1182   0.1834   0.1834
     0.5440   0.5440   0.5691   0.5691   2.3854   2.3854   3.9350   3.9350
     4.0593   4.0593   9.1089   9.1089  12.9514  12.9514  14.7653

     occupation numbers 
     1.0000   1.0000   1.0000   1.0000   1.0000   1.0000   1.0000   1.0000
     1.0000   1.0000   1.0000   1.0000   1.0000   1.0000   1.0000   1.0000
     1.0000   1.0000   1.0000   1.0000   1.0000   1.0000   1.0000   1.0000
     1.0000   1.0000   0.0000   0.0000   0.0000   0.0000   0.0000

          k = 0.1667 0.3849 0.0000 (  2542 PWs)   bands (ev):

  -118.5357-118.5357 -72.7257 -72.7255 -72.7226 -72.7226 -72.7225 -72.7224
   -11.1408 -10.9536   0.0093   0.0746   0.1614   0.2319   0.3453   0.4120
     0.4571   0.5118   0.6024   0.7368   1.9091   2.4187   2.8942   3.3156
     4.2083   4.2648   8.7268  11.0901  12.4790  12.6817  14.2459

     occupation numbers 
     1.0000   1.0000   1.0000   1.0000   1.0000   1.0000   1.0000   1.0000
     1.0000   1.0000   1.0000   1.0000   1.0000   1.0000   1.0000   1.0000
     1.0000   1.0000   1.0000   1.0000   1.0000   1.0000   1.0000   1.0000
     1.0000   1.0000   0.0000   0.0000   0.0000   0.0000   0.0000

          k = 0.1667 0.3849 0.0775 (  2542 PWs)   bands (ev):

  -118.5357-118.5357 -72.7256 -72.7255 -72.7226 -72.7226 -72.7225 -72.7224
   -11.1334 -10.9604   0.0105   0.0690   0.1541   0.2270   0.3344   0.3903
     0.4482   0.5268   0.5996   0.7200   1.9134   2.4037   2.9996   3.3375
     4.1704   4.2874   8.7748  10.9886  12.3728  12.7135  14.3378

     occupation numbers 
     1.0000   1.0000   1.0000   1.0000   1.0000   1.0000   1.0000   1.0000
     1.0000   1.0000   1.0000   1.0000   1.0000   1.0000   1.0000   1.0000
     1.0000   1.0000   1.0000   1.0000   1.0000   1.0000   1.0000   1.0000
     1.0000   1.0000   0.0000   0.0000   0.0000   0.0000   0.0000

          k = 0.1667 0.3849 0.1550 (  2538 PWs)   bands (ev):

  -118.5357-118.5357 -72.7256 -72.7255 -72.7226 -72.7226 -72.7225 -72.7224
   -11.1124 -10.9799   0.0077   0.0568   0.1468   0.2162   0.3027   0.3069
     0.4829   0.5417   0.5937   0.6835   1.9441   2.3354   3.2685   3.4284
     4.0638   4.3040   8.9343  10.6631  12.2934  12.7274  14.3576

     occupation numbers 
     1.0000   1.0000   1.0000   1.0000   1.0000   1.0000   1.0000   1.0000
     1.0000   1.0000   1.0000   1.0000   1.0000   1.0000   1.0000   1.0000
     1.0000   1.0000   1.0000   1.0000   1.0000   1.0000   1.0000   1.0000
     1.0000   1.0000   0.0000   0.0000   0.0000   0.0000   0.0000

          k = 0.1667 0.3849 0.2325 (  2537 PWs)   bands (ev):

  -118.5357-118.5357 -72.7256 -72.7255 -72.7225 -72.7225 -72.7225 -72.7224
   -11.0813 -11.0096   0.0008   0.0375   0.1567   0.2104   0.2322   0.2614
     0.5258   0.5508   0.5904   0.6426   2.0127   2.2266   3.5110   3.6684
     3.9166   4.2258   9.2320  10.1759  12.3687  12.6713  14.2839

     occupation numbers 
     1.0000   1.0000   1.0000   1.0000   1.0000   1.0000   1.0000   1.0000
     1.0000   1.0000   1.0000   1.0000   1.0000   1.0000   1.0000   1.0000
     1.0000   1.0000   1.0000   1.0000   1.0000   1.0000   1.0000   1.0000
     1.0000   1.0000   0.0000   0.0000   0.0000   0.0000   0.0000

          k = 0.1667 0.3849-0.3100 (  2532 PWs)   bands (ev):

  -118.5357-118.5357 -72.7256 -72.7256 -72.7225 -72.7225 -72.7224 -72.7224
   -11.0451 -11.0451   0.0107   0.0107   0.1866   0.1866   0.2250   0.2250
     0.5510   0.5510   0.6053   0.6053   2.1116   2.1116   3.6933   3.6933
     4.0186   4.0186   9.6641   9.6641  12.5292  12.5292  14.3388

     occupation numbers 
     1.0000   1.0000   1.0000   1.0000   1.0000   1.0000   1.0000   1.0000
[...]
     3.9635   4.0413   9.5325  11.2717  12.4169  12.4593  14.4760

     occupation numbers 
     1.0000   1.0000   1.0000   1.0000   1.0000   1.0000   1.0000   1.0000
     1.0000   1.0000   1.0000   1.0000   1.0000   1.0000   1.0000   1.0000
     1.0000   1.0000   1.0000   1.0000   1.0000   1.0000   1.0000   1.0000
     1.0000   1.0000   0.0000   0.0000   0.0000   0.0000   0.0000

          k = 0.2500 0.4330 0.0775 (  2529 PWs)   bands (ev):

  -118.5357-118.5357 -72.7256 -72.7255 -72.7226 -72.7226 -72.7225 -72.7224
   -11.0668 -10.9528   0.0122   0.1224   0.2485   0.2688   0.3857   0.4155
     0.4497   0.5310   0.6200   0.7385   1.8906   2.1679   2.9032   3.1453
     3.9187   4.0864   9.5656  11.2292  12.3265  12.4629  14.2417

     occupation numbers 
     1.0000   1.0000   1.0000   1.0000   1.0000   1.0000   1.0000   1.0000
     1.0000   1.0000   1.0000   1.0000   1.0000   1.0000   1.0000   1.0000
     1.0000   1.0000   1.0000   1.0000   1.0000   1.0000   1.0000   1.0000
     1.0000   1.0000   0.0000   0.0000   0.0000   0.0000   0.0000

          k = 0.2500 0.4330 0.1550 (  2542 PWs)   bands (ev):

  -118.5357-118.5357 -72.7256 -72.7255 -72.7226 -72.7226 -72.7225 -72.7225
   -11.0525 -10.9652   0.0329   0.0902   0.2183   0.2531   0.3425   0.3515
     0.4908   0.5479   0.6246   0.7193   1.8635   2.1039   2.9910   3.4300
     3.7975   4.1661   9.6798  11.0442  12.1956  12.4630  13.9349

     occupation numbers 
     1.0000   1.0000   1.0000   1.0000   1.0000   1.0000   1.0000   1.0000
     1.0000   1.0000   1.0000   1.0000   1.0000   1.0000   1.0000   1.0000
     1.0000   1.0000   1.0000   1.0000   1.0000   1.0000   1.0000   1.0000
     1.0000   1.0000   0.0000   0.0000   0.0000   0.0000   0.0000

          k = 0.2500 0.4330 0.2325 (  2534 PWs)   bands (ev):

  -118.5357-118.5357 -72.7256 -72.7256 -72.7226 -72.7225 -72.7225 -72.7224
   -11.0315 -10.9842   0.0518   0.0608   0.1900   0.2411   0.2942   0.3074
     0.5255   0.5523   0.6387   0.6923   1.8767   2.0150   3.1545   3.5641
     3.8034   4.1756   9.9066  10.6785  12.2054  12.4253  13.7130

     occupation numbers 
     1.0000   1.0000   1.0000   1.0000   1.0000   1.0000   1.0000   1.0000
     1.0000   1.0000   1.0000   1.0000   1.0000   1.0000   1.0000   1.0000
     1.0000   1.0000   1.0000   1.0000   1.0000   1.0000   1.0000   1.0000
     1.0000   1.0000   0.0000   0.0000   0.0000   0.0000   0.0000

          k = 0.2500 0.4330-0.3100 (  2542 PWs)   bands (ev):

  -118.5357-118.5357 -72.7256 -72.7256 -72.7226 -72.7226 -72.7225 -72.7225
   -11.0074 -11.0074   0.0523   0.0523   0.2070   0.2070   0.2854   0.2854
     0.5455   0.5455   0.6631   0.6631   1.9319   1.9319   3.3629   3.3629
     4.0486   4.0486  10.2565  10.2565  12.3207  12.3207  13.6394

     occupation numbers 
     1.0000   1.0000   1.0000   1.0000   1.0000   1.0000   1.0000   1.0000
     1.0000   1.0000   1.0000   1.0000   1.0000   1.0000   1.0000   1.0000
     1.0000   1.0000   1.0000   1.0000   1.0000   1.0000   1.0000   1.0000
     1.0000   1.0000   0.0000   0.0000   0.0000   0.0000   0.0000

          k = 0.2500 0.5292 0.0000 (  2523 PWs)   bands (ev):

  -118.5357-118.5357 -72.7255 -72.7255 -72.7226 -72.7225 -72.7225 -72.7225
   -11.0202 -10.9576  -0.0060   0.1707   0.2729   0.3934   0.4203   0.4513
     0.4871   0.5126   0.6483   0.7159   1.8713   2.1008   2.5349   3.2763
     3.7698   3.8423  10.2296  11.1937  12.2541  12.3152  14.2517

     occupation numbers 
     1.0000   1.0000   1.0000   1.0000   1.0000   1.0000   1.0000   1.0000
     1.0000   1.0000   1.0000   1.0000   1.0000   1.0000   1.0000   1.0000
     1.0000   1.0000   1.0000   1.0000   1.0000   1.0000   1.0000   1.0000
     1.0000   1.0000   0.0000   0.0000   0.0000   0.0000   0.0000

          k = 0.2500 0.5292 0.0775 (  2523 PWs)   bands (ev):

  -118.5357-118.5357 -72.7256 -72.7255 -72.7225 -72.7225 -72.7225 -72.7225
   -11.0173 -10.9595   0.0041   0.1586   0.2506   0.3770   0.4095   0.4349
     0.4905   0.5214   0.6551   0.7197   1.8464   2.0651   2.5732   3.3806
     3.7467   3.8819  10.2525  11.1937  12.2281  12.3026  13.9202

     occupation numbers 
     1.0000   1.0000   1.0000   1.0000   1.0000   1.0000   1.0000   1.0000
     1.0000   1.0000   1.0000   1.0000   1.0000   1.0000   1.0000   1.0000
     1.0000   1.0000   1.0000   1.0000   1.0000   1.0000   1.0000   1.0000
     1.0000   1.0000   0.0000   0.0000   0.0000   0.0000   0.0000

          k = 0.2500 0.5292 0.1550 (  2532 PWs)   bands (ev):

  -118.5357-118.5357 -72.7256 -72.7255 -72.7226 -72.7225 -72.7225 -72.7225
   -11.0093 -10.9651   0.0318   0.1311   0.1954   0.3393   0.3801   0.4058
     0.5031   0.5289   0.6733   0.7256   1.8035   1.9785   2.7001   3.5748
     3.6633   4.0135  10.3334  11.1647  12.1440  12.2759  13.4275

     occupation numbers 
     1.0000   1.0000   1.0000   1.0000   1.0000   1.0000   1.0000   1.0000
     1.0000   1.0000   1.0000   1.0000   1.0000   1.0000   1.0000   1.0000
     1.0000   1.0000   1.0000   1.0000   1.0000   1.0000   1.0000   1.0000
     1.0000   1.0000   0.0000   0.0000   0.0000   0.0000   0.0000

          k = 0.2500 0.5292 0.2325 (  2538 PWs)   bands (ev):

  -118.5357-118.5357 -72.7256 -72.7256 -72.7226 -72.7226 -72.7225 -72.7225
   -10.9980 -10.9740   0.0614   0.1073   0.1541   0.2684   0.3693   0.3848
     0.5146   0.5287   0.6956   0.7248   1.7885   1.8852   2.9036   3.3912
     3.9003   4.1078  10.4995  11.0216  12.0779  12.2160  13.1529

     occupation numbers 
     1.0000   1.0000   1.0000   1.0000   1.0000   1.0000   1.0000   1.0000
     1.0000   1.0000   1.0000   1.0000   1.0000   1.0000   1.0000   1.0000
     1.0000   1.0000   1.0000   1.0000   1.0000   1.0000   1.0000   1.0000
     1.0000   1.0000   0.0000   0.0000   0.0000   0.0000   0.0000

          k = 0.2500 0.5292-0.3100 (  2548 PWs)   bands (ev):

  -118.5357-118.5357 -72.7256 -72.7256 -72.7226 -72.7226 -72.7225 -72.7225
   -10.9855 -10.9855   0.0789   0.0789   0.1941   0.1941   0.3725   0.3725
     0.5233   0.5233   0.7144   0.7144   1.8170   1.8170   3.1470   3.1470
     4.0751   4.0751  10.7553  10.7553  12.1227  12.1227  13.1578

     occupation numbers 
     1.0000   1.0000   1.0000   1.0000   1.0000   1.0000   1.0000   1.0000
     1.0000   1.0000   1.0000   1.0000   1.0000   1.0000   1.0000   1.0000
     1.0000   1.0000   1.0000   1.0000   1.0000   1.0000   1.0000   1.0000
     1.0000   1.0000   0.0000   0.0000   0.0000   0.0000   0.0000

          k = 0.3333 0.5774 0.0000 (  2520 PWs)   bands (ev):

  -118.5357-118.5357 -72.7255 -72.7255 -72.7226 -72.7226 -72.7226 -72.7225
   -10.9811 -10.9811  -0.0108   0.2314   0.2314   0.4175   0.4539   0.4539
     0.5069   0.5122   0.6852   0.6852   2.0260   2.0260   2.2727   3.5487
     3.5487   3.6978  10.8338  10.8338  12.3084  12.3678  14.2336

     occupation numbers 
     1.0000   1.0000   1.0000   1.0000   1.0000   1.0000   1.0000   1.0000
     1.0000   1.0000   1.0000   1.0000   1.0000   1.0000   1.0000   1.0000
     1.0000   1.0000   1.0000   1.0000   1.0000   1.0000   1.0000   1.0000
     1.0000   1.0000   0.0000   0.0000   0.0000   0.0000   0.0000

          k = 0.3333 0.5774 0.0775 (  2517 PWs)   bands (ev):

  -118.5357-118.5357 -72.7255 -72.7255 -72.7226 -72.7225 -72.7225 -72.7224
   -10.9806 -10.9806   0.0013   0.2135   0.2135   0.4019   0.4472   0.4472
     0.4963   0.5106   0.6952   0.6952   1.9866   1.9866   2.3323   3.6354
     3.6354   3.6432  10.8562  10.8562  12.3113  12.3664  13.8859

     occupation numbers 
     1.0000   1.0000   1.0000   1.0000   1.0000   1.0000   1.0000   1.0000
     1.0000   1.0000   1.0000   1.0000   1.0000   1.0000   1.0000   1.0000
     1.0000   1.0000   1.0000   1.0000   1.0000   1.0000   1.0000   1.0000
     1.0000   1.0000   0.0000   0.0000   0.0000   0.0000   0.0000

          k = 0.3333 0.5774 0.1550 (  2541 PWs)   bands (ev):

  -118.5357-118.5357 -72.7256 -72.7256 -72.7226 -72.7226 -72.7226 -72.7225
   -10.9794 -10.9794   0.0371   0.1703   0.1703   0.3457   0.4345   0.4345
     0.4854   0.5060   0.7157   0.7157   1.9068   1.9068   2.4960   3.4894
     3.8312   3.8312  10.9224  10.9224  12.3192  12.3618  13.2628

     occupation numbers 
     1.0000   1.0000   1.0000   1.0000   1.0000   1.0000   1.0000   1.0000
     1.0000   1.0000   1.0000   1.0000   1.0000   1.0000   1.0000   1.0000
     1.0000   1.0000   1.0000   1.0000   1.0000   1.0000   1.0000   1.0000
     1.0000   1.0000   0.0000   0.0000   0.0000   0.0000   0.0000

          k = 0.3333 0.5774 0.2325 (  2550 PWs)   bands (ev):

  -118.5357-118.5357 -72.7256 -72.7256 -72.7226 -72.7226 -72.7226 -72.7225
   -10.9782 -10.9782   0.0951   0.1276   0.1276   0.2607   0.4251   0.4251
     0.4860   0.4994   0.7328   0.7328   1.8423   1.8423   2.7301   3.2628
     4.0147   4.0147  11.0171  11.0171  12.3305  12.3537  12.7425

     occupation numbers 
     1.0000   1.0000   1.0000   1.0000   1.0000   1.0000   1.0000   1.0000
     1.0000   1.0000   1.0000   1.0000   1.0000   1.0000   1.0000   1.0000
     1.0000   1.0000   1.0000   1.0000   1.0000   1.0000   1.0000   1.0000
     1.0000   1.0000   0.0000   0.0000   0.0000   0.0000   0.0000

          k = 0.3333 0.5774-0.3100 (  2544 PWs)   bands (ev):

  -118.5357-118.5357 -72.7256 -72.7256 -72.7226 -72.7226 -72.7225 -72.7225
   -10.9776 -10.9776   0.1102   0.1102   0.1722   0.1722   0.4217   0.4217
     0.4920   0.4920   0.7391   0.7391   1.8190   1.8190   2.9977   2.9977
     4.0884   4.0884  11.0715  11.0716  12.3428  12.3428  12.5320

     occupation numbers 
     1.0000   1.0000   1.0000   1.0000   1.0000   1.0000   1.0000   1.0000
     1.0000   1.0000   1.0000   1.0000   1.0000   1.0000   1.0000   1.0000
     1.0000   1.0000   1.0000   1.0000   1.0000   1.0000   1.0000   1.0000
     1.0000   1.0000   0.0000   0.0000   0.0000   0.0000   0.0000

     the Fermi energy is     5.4150 ev

     WARNING: integrated charge=    52.00198670, expected=    52.00000000

!    total energy              =   -1006.49965752 Ry
     estimated scf accuracy    <       0.00000001 Ry
     smearing contrib. (-TS)   =       0.00000829 Ry
     internal energy E=F+TS    =   -1006.49966581 Ry

     The total energy is F=E-TS. E is the sum of the following terms:
     one-electron contribution =    -882.86562706 Ry
     hartree contribution      =     456.40971071 Ry
     xc contribution           =     -99.02070222 Ry
     ewald contribution        =    -461.97319136 Ry
     one-center paw contrib.   =     -19.04985588 Ry
      -> PAW hartree energy AE =      49.93553990 Ry
      -> PAW hartree energy PS =     -49.70640677 Ry
      -> PAW xc energy AE      =     -32.96702212 Ry
      -> PAW xc energy PS      =      13.68803311 Ry
      -> total E_H with PAW    =     456.63884384 Ry
      -> total E_XC with PAW   =    -118.29969122 Ry

     convergence has been achieved in   9 iterations

     Forces acting on atoms (cartesian axes, Ry/au):

     atom    1 type  2   force =    -0.00000000   -0.00000000   -0.00004976
     atom    2 type  2   force =     0.00000000    0.00000000   -0.00004976
     atom    3 type  1   force =     0.00000000    0.00000000    0.00004976
     atom    4 type  1   force =     0.00000000    0.00000000    0.00004976
     The non-local contrib.  to forces
     atom    1 type  2   force =    -0.00000000   -0.00000000   -0.01104145
     atom    2 type  2   force =     0.00000000    0.00000000   -0.01104145
     atom    3 type  1   force =     0.00000000   -0.00000000    0.00494601
     atom    4 type  1   force =     0.00000000   -0.00000000    0.00494601
     The ionic contribution  to forces
     atom    1 type  2   force =    -0.00000051    0.00000029    0.06924644
     atom    2 type  2   force =     0.00000051   -0.00000029    0.06924644
     atom    3 type  1   force =    -0.00000044    0.00000025   -0.06924644
     atom    4 type  1   force =     0.00000044   -0.00000025   -0.06924644
     The local contribution  to forces
     atom    1 type  2   force =    -0.00001075    0.00000621   -0.05823639
     atom    2 type  2   force =     0.00003225   -0.00001862   -0.05823698
     atom    3 type  1   force =    -0.00000065    0.00000037    0.06442686
     atom    4 type  1   force =     0.00000194   -0.00000112    0.06442777
     The core correction contribution to forces
     atom    1 type  2   force =     0.00000000    0.00000000    0.00000000
     atom    2 type  2   force =     0.00000000    0.00000000    0.00000000
     atom    3 type  1   force =    -0.00000000    0.00000000   -0.00006932
     atom    4 type  1   force =     0.00000000   -0.00000000   -0.00006932
     The Hubbard contrib.    to forces
     atom    1 type  2   force =     0.00000000    0.00000000    0.00000000
     atom    2 type  2   force =     0.00000000    0.00000000    0.00000000
     atom    3 type  1   force =     0.00000000    0.00000000    0.00000000
     atom    4 type  1   force =     0.00000000    0.00000000    0.00000000
     The SCF correction term to forces
     atom    1 type  2   force =     0.00000000   -0.00000000   -0.00003104
     atom    2 type  2   force =    -0.00000000    0.00000000   -0.00003104
     atom    3 type  1   force =     0.00000000   -0.00000000   -0.00002078
     atom    4 type  1   force =     0.00000000   -0.00000000   -0.00002078

     Total force =     0.000100     Total SCF correction =     0.000053
     SCF correction compared to forces is large: reduce conv_thr to get better values


     Computing stress (Cartesian axis) and pressure

          total   stress  (Ry/bohr**3)                   (kbar)     P=     -185.50
  -0.00126765  -0.00000000   0.00000000         -186.48       -0.00        0.00
  -0.00000000  -0.00126765   0.00000000           -0.00     -186.48        0.00
   0.00000000   0.00000000  -0.00124777            0.00        0.00     -183.55

     kinetic stress (kbar)  26052.26      0.00      0.00
                                0.00  26052.26      0.00
                                0.00      0.00  26071.34

     local   stress (kbar) -13100.59     -0.00     -0.00
                               -0.00 -13100.59      0.00
                               -0.00      0.00 -15981.02

     nonloc. stress (kbar)   -616.72      0.00      0.00
                                0.00   -616.72      0.00
                                0.00      0.00   -623.69

     hartree stress (kbar)  52107.67     -0.00      0.00
                               -0.00  52107.67     -0.00
                                0.00     -0.00  53493.37

     exc-cor stress (kbar) -10630.70      0.00     -0.00
                                0.00 -10630.70      0.00
                               -0.00      0.00 -10630.84

     corecor stress (kbar)   -292.79     -0.00      0.00
                               -0.00   -292.79     -0.00
                                0.00     -0.00   -292.82

     ewald   stress (kbar) -53705.62      0.00      0.00
                                0.00 -53705.62     -0.00
                                0.00     -0.00 -52219.90

     hubbard stress (kbar)      0.00      0.00      0.00
                                0.00      0.00      0.00
                                0.00      0.00      0.00

     DFT-D   stress (kbar)      0.00      0.00      0.00
                                0.00      0.00      0.00
                                0.00      0.00      0.00

     XDM     stress (kbar)      0.00      0.00      0.00
                                0.00      0.00      0.00
                                0.00      0.00      0.00

     dft-nl  stress (kbar)      0.00      0.00      0.00
                                0.00      0.00      0.00
                                0.00      0.00      0.00

     TS-vdW  stress (kbar)      0.00      0.00      0.00
                                0.00      0.00      0.00
                                0.00      0.00      0.00

     MDB     stress (kbar)      0.00      0.00      0.00
                                0.00      0.00      0.00
                                0.00      0.00      0.00

     3D-RISM stress (kbar)      0.00      0.00      0.00
                                0.00      0.00      0.00
                                0.00      0.00      0.00


     Writing all to output data dir ./temp_hexag/aiida.save/ :
     XML data file, charge density, pseudopotentials, collected wavefunctions

     init_run     :    189.93s CPU      9.14s WALL (       1 calls)
     electrons    :   4394.96s CPU    214.20s WALL (       1 calls)
     forces       :     82.80s CPU      3.70s WALL (       1 calls)
     stress       :    103.51s CPU      5.19s WALL (       1 calls)

     Called by init_run:
     wfcinit      :    184.50s CPU      8.58s WALL (       1 calls)
     wfcinit:atom :      1.38s CPU      0.11s WALL (      95 calls)
     wfcinit:wfcr :    180.30s CPU      8.07s WALL (      95 calls)
     potinit      :      2.35s CPU      0.14s WALL (       1 calls)
     hinit0       :      1.54s CPU      0.24s WALL (       1 calls)

     Called by electrons:
     c_bands      :   3722.43s CPU    183.80s WALL (       9 calls)
     sum_band     :    650.20s CPU     28.46s WALL (       9 calls)
     v_of_rho     :      6.25s CPU      0.29s WALL (      10 calls)
     v_h          :      0.40s CPU      0.04s WALL (      10 calls)
     v_xc         :      6.91s CPU      0.30s WALL (      12 calls)
     newd         :     11.40s CPU      1.41s WALL (      10 calls)
     PAW_pot      :      5.70s CPU      0.25s WALL (      10 calls)
     mix_rho      :      1.06s CPU      0.06s WALL (       9 calls)

     Called by c_bands:
     init_us_2    :     25.33s CPU      1.72s WALL (    1995 calls)
     cegterg      :   3659.51s CPU    180.33s WALL (     855 calls)

     Called by sum_band:
     sum_band:wei :      0.47s CPU      0.02s WALL (       9 calls)
     sum_band:loo :    645.05s CPU     27.06s WALL (       9 calls)
     sum_band:buf :      2.20s CPU      0.13s WALL (     855 calls)
     sum_band:ini :     10.14s CPU      0.56s WALL (     855 calls)
     sum_band:cal :    130.61s CPU      4.84s WALL (     855 calls)
     sum_band:bec :     25.16s CPU      1.14s WALL (     855 calls)
     addusdens    :      4.30s CPU      1.27s WALL (       9 calls)
                                        0.00s GPU  (       9 calls)
     addusd:skk   :      0.01s CPU      0.01s WALL (      18 calls)
                                        0.00s GPU  (      18 calls)

     Called by *egterg:
     cdiaghg      :     44.93s CPU      2.46s WALL (    3207 calls)
     cegterg:over :    231.11s CPU     12.18s WALL (    2352 calls)
     cegterg:upda :     89.46s CPU      9.12s WALL (    2352 calls)
     cegterg:last :    117.98s CPU     15.82s WALL (    1710 calls)
     h_psi        :   2917.64s CPU    126.06s WALL (    3302 calls)
     s_psi        :    253.80s CPU     12.68s WALL (    3302 calls)
     g_psi        :     16.08s CPU      0.96s WALL (    2352 calls)

     Called by h_psi:
     h_psi:calbec :    312.13s CPU     11.92s WALL (    3302 calls)
     vloc_psi     :   2293.13s CPU    100.15s WALL (    3302 calls)
     add_vuspsi   :    280.16s CPU     12.44s WALL (    3302 calls)

     General routines
     calbec       :    510.61s CPU     19.51s WALL (    4632 calls)
     fft          :      5.70s CPU      0.28s WALL (     153 calls)
     ffts         :      0.27s CPU      0.01s WALL (      19 calls)
     fftw         :    964.37s CPU     44.31s WALL (  157055 calls)
     interpolate  :      0.55s CPU      0.03s WALL (      10 calls)

     Parallel routines

     PAW routines
     PAW_pot      :      5.70s CPU      0.25s WALL (      10 calls)
     PAW_symme    :      0.00s CPU      0.00s WALL (      19 calls)

     PWSCF        :      1h19m CPU   3m54.75s WALL


   This run was terminated on:  23:48:48  11Jun2024            

=------------------------------------------------------------------------------=
   JOB DONE.
=------------------------------------------------------------------------------=
