
     Program PWSCF v.7.3.1 starts on  9Jun2024 at 15:48:14 

     This program is part of the open-source Quantum ESPRESSO suite
     for quantum simulation of materials; please cite
         "P. Giannozzi et al., J. Phys.:Condens. Matter 21 395502 (2009);
         "P. Giannozzi et al., J. Phys.:Condens. Matter 29 465901 (2017);
         "P. Giannozzi et al., J. Chem. Phys. 152 154105 (2020);
          URL http://www.quantum-espresso.org", 
     in publications or presentations arising from this work. More details at
     http://www.quantum-espresso.org/quote

     Parallel version (MPI & OpenMP), running on      24 processor cores
     Number of MPI processes:                 1
     Threads/MPI process:                    24

     MPI processes distributed on     1 nodes
     5068 MiB available memory on the printing compute node when the environment starts

     Waiting for input...
     Reading input from standard input

     Current dimensions of program PWSCF are:
     Max number of different atomic species (ntypx) = 10
     Max number of k-points (npk) =  40000
     Max angular momentum in pseudopotentials (lmaxx) =  4
     file O.pbe-n-kjpaw_psl.0.1.UPF: wavefunction(s)  2P renormalized
     Message from routine setup:
     using ibrav=0 with symmetry is DISCOURAGED, use correct ibrav instead

     Subspace diagonalization in iterative solution of the eigenvalue problem:
     a serial algorithm will be used


     G-vector sticks info
     --------------------
     sticks:   dense  smooth     PW     G-vecs:    dense   smooth      PW
     Sum        1039     511    163                43245    15267    2599

     Using Slab Decomposition



     bravais-lattice index     =            0
     lattice parameter (alat)  =       6.1177  a.u.
     unit-cell volume          =     319.8518 (a.u.)^3
     number of atoms/cell      =            4
     number of atomic types    =            2
     number of electrons       =        52.00
     number of Kohn-Sham states=           31
     kinetic-energy cutoff     =      50.0000  Ry
     charge density cutoff     =     400.0000  Ry
     scf convergence threshold =      2.0E-08
     mixing beta               =       0.4000
     number of iterations used =            8  plain     mixing
     Exchange-correlation= SLA  PW   PBE  PBE
                           (   1   4   3   4   0   0   0)

     celldm(1)=   6.117707  celldm(2)=   0.000000  celldm(3)=   0.000000
     celldm(4)=   0.000000  celldm(5)=   0.000000  celldm(6)=   0.000000

     crystal axes: (cart. coord. in units of alat)
               a(1) = (   1.000000   0.000000   0.000000 )  
               a(2) = (  -0.500000   0.866025   0.000000 )  
               a(3) = (   0.000000   0.000000   1.613066 )  

     reciprocal axes: (cart. coord. in units 2 pi/alat)
               b(1) = (  1.000000  0.577350 -0.000000 )  
               b(2) = (  0.000000  1.154701  0.000000 )  
               b(3) = (  0.000000 -0.000000  0.619937 )  


     PseudoPot. # 1 for O  read from file:
     ../SSSP_1.3.0_PBE_efficiency/O.pbe-n-kjpaw_psl.0.1.UPF
     MD5 check sum: 0234752ac141de4415c5fc33072bef88
     Pseudo is Projector augmented-wave + core cor, Zval =  6.0
     Generated using "atomic" code by A. Dal Corso  v.5.0.99 svn rev. 10869
     Shape of augmentation charge: BESSEL
     Using radial grid of 1095 points,  4 beta functions with: 
                l(1) =   0
                l(2) =   0
                l(3) =   1
                l(4) =   1
     Q(r) pseudized with 0 coefficients 


     PseudoPot. # 2 for Zn read from file:
     ../SSSP_1.3.0_PBE_efficiency/Zn_pbe_v1.uspp.F.UPF
     MD5 check sum: df62231357ef9e81f77b2b3087fa5675
     Pseudo is Ultrasoft, Zval = 20.0
     Generated by new atomic code, or converted to UPF format
     Using radial grid of  943 points,  6 beta functions with: 
                l(1) =   0
                l(2) =   0
                l(3) =   1
                l(4) =   1
                l(5) =   2
                l(6) =   2
     Q(r) pseudized with  8 coefficients,  rinner =    1.100   1.100   1.100
                                                       1.100   1.100

     atomic species   valence    mass     pseudopotential
     O                 6.00    15.99940     O ( 1.00)
     Zn               20.00    65.38000     Zn( 1.00)

     12 Sym. Ops. (no inversion) found ( 6 have fractional translation)


                                    s                        frac. trans.

      isym =  1     identity                                     

 cryst.   s( 1) = (     1          0          0      )
                  (     0          1          0      )
                  (     0          0          1      )

 cart.    s( 1) = (  1.0000000  0.0000000  0.0000000 )
                  (  0.0000000  1.0000000  0.0000000 )
                  (  0.0000000  0.0000000  1.0000000 )


      isym =  2     180 deg rotation - cart. axis [0,0,1]        

 cryst.   s( 2) = (    -1          0          0      )    f =(  0.0000000 )
                  (     0         -1          0      )       ( -0.0000000 )
                  (     0          0          1      )       (  0.5000000 )

 cart.    s( 2) = ( -1.0000000  0.0000000  0.0000000 )    f =(  0.0000000 )
                  (  0.0000000 -1.0000000  0.0000000 )       ( -0.0000000 )
                  (  0.0000000  0.0000000  1.0000000 )       (  0.8065331 )


      isym =  3      60 deg rotation - cryst. axis [0,0,1]       

 cryst.   s( 3) = (     1          1          0      )    f =( -0.0000000 )
                  (    -1          0          0      )       (  0.0000000 )
                  (     0          0          1      )       (  0.5000000 )

 cart.    s( 3) = (  0.5000000 -0.8660254  0.0000000 )    f =( -0.0000000 )
                  (  0.8660254  0.5000000  0.0000000 )       (  0.0000000 )
                  (  0.0000000  0.0000000  1.0000000 )       (  0.8065331 )


      isym =  4      60 deg rotation - cryst. axis [0,0,-1]      

 cryst.   s( 4) = (     0         -1          0      )    f =(  0.0000000 )
                  (     1          1          0      )       (  0.0000000 )
                  (     0          0          1      )       (  0.5000000 )

 cart.    s( 4) = (  0.5000000  0.8660254  0.0000000 )    f =( -0.0000000 )
                  ( -0.8660254  0.5000000  0.0000000 )       (  0.0000000 )
                  (  0.0000000  0.0000000  1.0000000 )       (  0.8065331 )


      isym =  5     120 deg rotation - cryst. axis [0,0,1]       

 cryst.   s( 5) = (     0          1          0      )
                  (    -1         -1          0      )
                  (     0          0          1      )

 cart.    s( 5) = ( -0.5000000 -0.8660254  0.0000000 )
                  (  0.8660254 -0.5000000  0.0000000 )
                  (  0.0000000  0.0000000  1.0000000 )


      isym =  6     120 deg rotation - cryst. axis [0,0,-1]      

 cryst.   s( 6) = (    -1         -1          0      )
                  (     1          0          0      )
                  (     0          0          1      )

 cart.    s( 6) = ( -0.5000000  0.8660254  0.0000000 )
                  ( -0.8660254 -0.5000000  0.0000000 )
                  (  0.0000000  0.0000000  1.0000000 )


      isym =  7     inv. 180 deg rotation - cart. axis [0,1,0]   

 cryst.   s( 7) = (     1          0          0      )    f =( -0.0000000 )
                  (    -1         -1          0      )       ( -0.0000000 )
                  (     0          0          1      )       (  0.5000000 )

 cart.    s( 7) = (  1.0000000  0.0000000  0.0000000 )    f =( -0.0000000 )
                  (  0.0000000 -1.0000000  0.0000000 )       ( -0.0000000 )
                  (  0.0000000  0.0000000  1.0000000 )       (  0.8065331 )


      isym =  8     inv. 180 deg rotation - cart. axis [1,0,0]   

 cryst.   s( 8) = (    -1          0          0      )
                  (     1          1          0      )
                  (     0          0          1      )

 cart.    s( 8) = ( -1.0000000  0.0000000  0.0000000 )
                  (  0.0000000  1.0000000  0.0000000 )
                  (  0.0000000  0.0000000  1.0000000 )


      isym =  9     inv. 180 deg rotation - cryst. axis [1,-1,0] 

 cryst.   s( 9) = (     0          1          0      )    f =(  0.0000000 )
                  (     1          0          0      )       (  0.0000000 )
                  (     0          0          1      )       (  0.5000000 )

 cart.    s( 9) = ( -0.5000000  0.8660254  0.0000000 )    f =(  0.0000000 )
                  (  0.8660254  0.5000000  0.0000000 )       (  0.0000000 )
                  (  0.0000000  0.0000000  1.0000000 )       (  0.8065331 )


      isym = 10     inv. 180 deg rotation - cryst. axis [2,1,0]  

 cryst.   s(10) = (    -1         -1          0      )    f =(  0.0000000 )
                  (     0          1          0      )       (  0.0000000 )
                  (     0          0          1      )       (  0.5000000 )

 cart.    s(10) = ( -0.5000000 -0.8660254  0.0000000 )    f =( -0.0000000 )
                  ( -0.8660254  0.5000000  0.0000000 )       (  0.0000000 )
                  (  0.0000000  0.0000000  1.0000000 )       (  0.8065331 )


      isym = 11     inv. 180 deg rotation - cryst. axis [0,1,0]  

 cryst.   s(11) = (     1          1          0      )
                  (     0         -1          0      )
                  (     0          0          1      )

 cart.    s(11) = (  0.5000000  0.8660254  0.0000000 )
                  (  0.8660254 -0.5000000  0.0000000 )
                  (  0.0000000  0.0000000  1.0000000 )


      isym = 12     inv. 180 deg rotation - cryst. axis [1,1,0]  

 cryst.   s(12) = (     0         -1          0      )
                  (    -1          0          0      )
                  (     0          0          1      )

 cart.    s(12) = (  0.5000000 -0.8660254  0.0000000 )
                  ( -0.8660254 -0.5000000  0.0000000 )
                  (  0.0000000  0.0000000  1.0000000 )


   Cartesian axes

     site n.     atom                  positions (alat units)
         1        Zn     tau(   1) = (   0.5000000   0.2886751   0.8074875  )
         2        Zn     tau(   2) = (  -0.0000000   0.5773503   0.0009545  )
         3        O      tau(   3) = (   0.5000000   0.2886751   1.4190438  )
         4        O      tau(   4) = (  -0.0000000   0.5773503   0.6125107  )

   Crystallographic axes

     site n.     atom                  positions (cryst. coord.)
         1        Zn     tau(   1) = (  0.6666667  0.3333333  0.5005917  )
         2        Zn     tau(   2) = (  0.3333333  0.6666667  0.0005917  )
         3        O      tau(   3) = (  0.6666667  0.3333333  0.8797183  )
         4        O      tau(   4) = (  0.3333333  0.6666667  0.3797183  )

     number of k points=    48  Marzari-Vanderbilt smearing, width (Ry)=  0.0147
                       cart. coord. in units 2pi/alat
        k(    1) = (   0.0000000   0.0000000   0.0000000), wk =   0.0041152
        k(    2) = (   0.0000000   0.0000000   0.1033229), wk =   0.0082305
        k(    3) = (   0.0000000   0.0000000   0.2066458), wk =   0.0082305
        k(    4) = (   0.0000000   0.0000000  -0.3099687), wk =   0.0041152
        k(    5) = (   0.0000000   0.1283001   0.0000000), wk =   0.0246914
        k(    6) = (   0.0000000   0.1283001   0.1033229), wk =   0.0493827
        k(    7) = (   0.0000000   0.1283001   0.2066458), wk =   0.0493827
        k(    8) = (   0.0000000   0.1283001  -0.3099687), wk =   0.0246914
        k(    9) = (   0.0000000   0.2566001   0.0000000), wk =   0.0246914
        k(   10) = (   0.0000000   0.2566001   0.1033229), wk =   0.0493827
        k(   11) = (   0.0000000   0.2566001   0.2066458), wk =   0.0493827
        k(   12) = (   0.0000000   0.2566001  -0.3099687), wk =   0.0246914
        k(   13) = (   0.0000000   0.3849002   0.0000000), wk =   0.0246914
        k(   14) = (   0.0000000   0.3849002   0.1033229), wk =   0.0493827
        k(   15) = (   0.0000000   0.3849002   0.2066458), wk =   0.0493827
        k(   16) = (   0.0000000   0.3849002  -0.3099687), wk =   0.0246914
        k(   17) = (   0.0000000   0.5132002   0.0000000), wk =   0.0246914
        k(   18) = (   0.0000000   0.5132002   0.1033229), wk =   0.0493827
        k(   19) = (   0.0000000   0.5132002   0.2066458), wk =   0.0493827
        k(   20) = (   0.0000000   0.5132002  -0.3099687), wk =   0.0246914
        k(   21) = (   0.1111111   0.1924501   0.0000000), wk =   0.0246914
        k(   22) = (   0.1111111   0.1924501   0.1033229), wk =   0.0493827
        k(   23) = (   0.1111111   0.1924501   0.2066458), wk =   0.0493827
        k(   24) = (   0.1111111   0.1924501  -0.3099687), wk =   0.0246914
        k(   25) = (   0.1111111   0.3207501   0.0000000), wk =   0.0493827
        k(   26) = (   0.1111111   0.3207501   0.1033229), wk =   0.0987654
        k(   27) = (   0.1111111   0.3207501   0.2066458), wk =   0.0987654
        k(   28) = (   0.1111111   0.3207501  -0.3099687), wk =   0.0493827
        k(   29) = (   0.1111111   0.4490502   0.0000000), wk =   0.0493827
        k(   30) = (   0.1111111   0.4490502   0.1033229), wk =   0.0987654
        k(   31) = (   0.1111111   0.4490502   0.2066458), wk =   0.0987654
        k(   32) = (   0.1111111   0.4490502  -0.3099687), wk =   0.0493827
        k(   33) = (   0.1111111   0.5773503   0.0000000), wk =   0.0246914
        k(   34) = (   0.1111111   0.5773503   0.1033229), wk =   0.0493827
        k(   35) = (   0.1111111   0.5773503   0.2066458), wk =   0.0493827
        k(   36) = (   0.1111111   0.5773503  -0.3099687), wk =   0.0246914
        k(   37) = (   0.2222222   0.3849002   0.0000000), wk =   0.0246914
        k(   38) = (   0.2222222   0.3849002   0.1033229), wk =   0.0493827
        k(   39) = (   0.2222222   0.3849002   0.2066458), wk =   0.0493827
        k(   40) = (   0.2222222   0.3849002  -0.3099687), wk =   0.0246914
        k(   41) = (   0.2222222   0.5132002   0.0000000), wk =   0.0493827
        k(   42) = (   0.2222222   0.5132002   0.1033229), wk =   0.0987654
        k(   43) = (   0.2222222   0.5132002   0.2066458), wk =   0.0987654
        k(   44) = (   0.2222222   0.5132002  -0.3099687), wk =   0.0493827
        k(   45) = (   0.3333333   0.5773503   0.0000000), wk =   0.0082305
        k(   46) = (   0.3333333   0.5773503   0.1033229), wk =   0.0164609
        k(   47) = (   0.3333333   0.5773503   0.2066458), wk =   0.0164609
        k(   48) = (   0.3333333   0.5773503  -0.3099687), wk =   0.0082305

                       cryst. coord.
        k(    1) = (   0.0000000   0.0000000   0.0000000), wk =   0.0041152
        k(    2) = (   0.0000000   0.0000000   0.1666667), wk =   0.0082305
        k(    3) = (   0.0000000   0.0000000   0.3333333), wk =   0.0082305
        k(    4) = (   0.0000000   0.0000000  -0.5000000), wk =   0.0041152
        k(    5) = (   0.0000000   0.1111111   0.0000000), wk =   0.0246914
        k(    6) = (   0.0000000   0.1111111   0.1666667), wk =   0.0493827
        k(    7) = (   0.0000000   0.1111111   0.3333333), wk =   0.0493827
        k(    8) = (   0.0000000   0.1111111  -0.5000000), wk =   0.0246914
        k(    9) = (   0.0000000   0.2222222   0.0000000), wk =   0.0246914
        k(   10) = (   0.0000000   0.2222222   0.1666667), wk =   0.0493827
        k(   11) = (   0.0000000   0.2222222   0.3333333), wk =   0.0493827
        k(   12) = (   0.0000000   0.2222222  -0.5000000), wk =   0.0246914
        k(   13) = (   0.0000000   0.3333333   0.0000000), wk =   0.0246914
        k(   14) = (   0.0000000   0.3333333   0.1666667), wk =   0.0493827
        k(   15) = (   0.0000000   0.3333333   0.3333333), wk =   0.0493827
        k(   16) = (   0.0000000   0.3333333  -0.5000000), wk =   0.0246914
        k(   17) = (   0.0000000   0.4444444   0.0000000), wk =   0.0246914
        k(   18) = (   0.0000000   0.4444444   0.1666667), wk =   0.0493827
        k(   19) = (   0.0000000   0.4444444   0.3333333), wk =   0.0493827
        k(   20) = (   0.0000000   0.4444444  -0.5000000), wk =   0.0246914
        k(   21) = (   0.1111111   0.1111111   0.0000000), wk =   0.0246914
        k(   22) = (   0.1111111   0.1111111   0.1666667), wk =   0.0493827
        k(   23) = (   0.1111111   0.1111111   0.3333333), wk =   0.0493827
        k(   24) = (   0.1111111   0.1111111  -0.5000000), wk =   0.0246914
        k(   25) = (   0.1111111   0.2222222   0.0000000), wk =   0.0493827
        k(   26) = (   0.1111111   0.2222222   0.1666667), wk =   0.0987654
        k(   27) = (   0.1111111   0.2222222   0.3333333), wk =   0.0987654
        k(   28) = (   0.1111111   0.2222222  -0.5000000), wk =   0.0493827
        k(   29) = (   0.1111111   0.3333333   0.0000000), wk =   0.0493827
        k(   30) = (   0.1111111   0.3333333   0.1666667), wk =   0.0987654
        k(   31) = (   0.1111111   0.3333333   0.3333333), wk =   0.0987654
        k(   32) = (   0.1111111   0.3333333  -0.5000000), wk =   0.0493827
        k(   33) = (   0.1111111   0.4444444   0.0000000), wk =   0.0246914
        k(   34) = (   0.1111111   0.4444444   0.1666667), wk =   0.0493827
        k(   35) = (   0.1111111   0.4444444   0.3333333), wk =   0.0493827
        k(   36) = (   0.1111111   0.4444444  -0.5000000), wk =   0.0246914
        k(   37) = (   0.2222222   0.2222222   0.0000000), wk =   0.0246914
        k(   38) = (   0.2222222   0.2222222   0.1666667), wk =   0.0493827
        k(   39) = (   0.2222222   0.2222222   0.3333333), wk =   0.0493827
        k(   40) = (   0.2222222   0.2222222  -0.5000000), wk =   0.0246914
        k(   41) = (   0.2222222   0.3333333   0.0000000), wk =   0.0493827
        k(   42) = (   0.2222222   0.3333333   0.1666667), wk =   0.0987654
        k(   43) = (   0.2222222   0.3333333   0.3333333), wk =   0.0987654
        k(   44) = (   0.2222222   0.3333333  -0.5000000), wk =   0.0493827
        k(   45) = (   0.3333333   0.3333333   0.0000000), wk =   0.0082305
        k(   46) = (   0.3333333   0.3333333   0.1666667), wk =   0.0164609
        k(   47) = (   0.3333333   0.3333333   0.3333333), wk =   0.0164609
        k(   48) = (   0.3333333   0.3333333  -0.5000000), wk =   0.0082305

     Dense  grid:    43245 G-vectors     FFT dimensions: (  40,  40,  64)

     Smooth grid:    15267 G-vectors     FFT dimensions: (  27,  27,  48)

     Dynamical RAM for                 wfc:       0.90 MB

     Dynamical RAM for     wfc (w. buffer):      44.27 MB

     Dynamical RAM for           str. fact:       1.32 MB

     Dynamical RAM for           local pot:       0.00 MB

     Dynamical RAM for          nlocal pot:       1.52 MB

     Dynamical RAM for                qrad:       3.21 MB

     Dynamical RAM for          rho,v,vnew:       4.32 MB

     Dynamical RAM for               rhoin:       1.44 MB

     Dynamical RAM for            rho*nmix:      10.56 MB

     Dynamical RAM for           G-vectors:       2.59 MB

     Dynamical RAM for          h,s,v(r/c):       0.18 MB

     Dynamical RAM for          <psi|beta>:       0.02 MB

     Dynamical RAM for                 psi:       1.81 MB

     Dynamical RAM for                hpsi:       1.81 MB

     Dynamical RAM for                spsi:       1.81 MB

     Dynamical RAM for      wfcinit/wfcrot:       2.01 MB

     Dynamical RAM for           addusdens:     124.05 MB

     Dynamical RAM for          addusforce:     125.71 MB

     Dynamical RAM for         addusstress:     132.63 MB

     Estimated static dynamical RAM per process >      64.56 MB

     Estimated max dynamical RAM per process >     207.75 MB

     Check: negative core charge=   -0.000003

     Initial potential from superposition of free atoms

     starting charge      51.9997, renormalised to      52.0000
     Starting wfcs are   34 randomized atomic wfcs
     Checking if some PAW data can be deallocated... 

     total cpu time spent up to now is        4.0 secs

     Self-consistent Calculation

     iteration #  1     ecut=    50.00 Ry     beta= 0.40
     Davidson diagonalization with overlap

---- Real-time Memory Report at c_bands before calling an iterative solver
           175 MiB given to the printing process from OS
             0 MiB allocation reported by mallinfo(arena+hblkhd)
          5002 MiB available memory on the node where the printing process lives
------------------
     ethr =  1.00E-02,  avg # of iterations =  2.9

     total cpu time spent up to now is       12.2 secs

     total energy              =   -1006.32240347 Ry
     estimated scf accuracy    <       0.85217410 Ry

     iteration #  2     ecut=    50.00 Ry     beta= 0.40
     Davidson diagonalization with overlap

---- Real-time Memory Report at c_bands before calling an iterative solver
           250 MiB given to the printing process from OS
             0 MiB allocation reported by mallinfo(arena+hblkhd)
          4958 MiB available memory on the node where the printing process lives
------------------
     ethr =  1.64E-03,  avg # of iterations =  2.0

     total cpu time spent up to now is       20.7 secs

     WARNING: integrated charge=    52.00048022, expected=    52.00000000

     total energy              =   -1006.55342612 Ry
     estimated scf accuracy    <       0.10139382 Ry

     iteration #  3     ecut=    50.00 Ry     beta= 0.40
     Davidson diagonalization with overlap

---- Real-time Memory Report at c_bands before calling an iterative solver
           251 MiB given to the printing process from OS
             0 MiB allocation reported by mallinfo(arena+hblkhd)
          4955 MiB available memory on the node where the printing process lives
------------------
     ethr =  1.95E-04,  avg # of iterations =  2.5

     total cpu time spent up to now is       29.7 secs

     WARNING: integrated charge=    52.00032871, expected=    52.00000000

     total energy              =   -1006.56795733 Ry
     estimated scf accuracy    <       0.00918690 Ry

     iteration #  4     ecut=    50.00 Ry     beta= 0.40
     Davidson diagonalization with overlap

---- Real-time Memory Report at c_bands before calling an iterative solver
           251 MiB given to the printing process from OS
             0 MiB allocation reported by mallinfo(arena+hblkhd)
          4951 MiB available memory on the node where the printing process lives
------------------
     ethr =  1.77E-05,  avg # of iterations =  3.3

     total cpu time spent up to now is       38.6 secs

     WARNING: integrated charge=    52.00016596, expected=    52.00000000

     total energy              =   -1006.56825988 Ry
     estimated scf accuracy    <       0.00172307 Ry

     iteration #  5     ecut=    50.00 Ry     beta= 0.40
     Davidson diagonalization with overlap

---- Real-time Memory Report at c_bands before calling an iterative solver
           252 MiB given to the printing process from OS
             0 MiB allocation reported by mallinfo(arena+hblkhd)
          4951 MiB available memory on the node where the printing process lives
------------------
     ethr =  3.31E-06,  avg # of iterations =  2.5

     total cpu time spent up to now is       50.4 secs

     WARNING: integrated charge=    52.00014385, expected=    52.00000000

     total energy              =   -1006.56834330 Ry
     estimated scf accuracy    <       0.00004292 Ry

     iteration #  6     ecut=    50.00 Ry     beta= 0.40
     Davidson diagonalization with overlap

---- Real-time Memory Report at c_bands before calling an iterative solver
           252 MiB given to the printing process from OS
             0 MiB allocation reported by mallinfo(arena+hblkhd)
          4949 MiB available memory on the node where the printing process lives
------------------
     ethr =  8.25E-08,  avg # of iterations =  3.1

     total cpu time spent up to now is       61.9 secs

     WARNING: integrated charge=    52.00012742, expected=    52.00000000

     total energy              =   -1006.56834571 Ry
     estimated scf accuracy    <       0.00007709 Ry

     iteration #  7     ecut=    50.00 Ry     beta= 0.40
     Davidson diagonalization with overlap

---- Real-time Memory Report at c_bands before calling an iterative solver
           253 MiB given to the printing process from OS
             0 MiB allocation reported by mallinfo(arena+hblkhd)
          4951 MiB available memory on the node where the printing process lives
------------------
     ethr =  8.25E-08,  avg # of iterations =  2.0

     total cpu time spent up to now is       76.9 secs

     WARNING: integrated charge=    52.00012433, expected=    52.00000000

     total energy              =   -1006.56836607 Ry
     estimated scf accuracy    <       0.00000017 Ry

     iteration #  8     ecut=    50.00 Ry     beta= 0.40
     Davidson diagonalization with overlap

---- Real-time Memory Report at c_bands before calling an iterative solver
           253 MiB given to the printing process from OS
             0 MiB allocation reported by mallinfo(arena+hblkhd)
          4945 MiB available memory on the node where the printing process lives
------------------
     ethr =  3.29E-10,  avg # of iterations =  3.1

     total cpu time spent up to now is       93.3 secs

     WARNING: integrated charge=    52.00012462, expected=    52.00000000

     total energy              =   -1006.56836595 Ry
     estimated scf accuracy    <       0.00000017 Ry

     iteration #  9     ecut=    50.00 Ry     beta= 0.40
     Davidson diagonalization with overlap

---- Real-time Memory Report at c_bands before calling an iterative solver
           254 MiB given to the printing process from OS
             0 MiB allocation reported by mallinfo(arena+hblkhd)
          4945 MiB available memory on the node where the printing process lives
------------------
     ethr =  3.27E-10,  avg # of iterations =  2.4

     total cpu time spent up to now is      103.3 secs

     WARNING: integrated charge=    52.00012404, expected=    52.00000000

     total energy              =   -1006.56836595 Ry
     estimated scf accuracy    <       0.00000016 Ry

     iteration # 10     ecut=    50.00 Ry     beta= 0.40
     Davidson diagonalization with overlap

---- Real-time Memory Report at c_bands before calling an iterative solver
           254 MiB given to the printing process from OS
             0 MiB allocation reported by mallinfo(arena+hblkhd)
          4945 MiB available memory on the node where the printing process lives
------------------
     ethr =  3.10E-10,  avg # of iterations =  2.0

     total cpu time spent up to now is      111.7 secs

     End of self-consistent calculation

          k = 0.0000 0.0000 0.0000 (  1883 PWs)   bands (ev):

  -114.5437-114.5435 -68.7444 -68.7411 -68.7390 -68.7390 -68.7384 -68.7384
    -9.2212  -8.4879   3.1607   3.1607   3.2060   3.2316   3.3550   3.3550
     4.3469   4.3469   4.5585   4.5585   4.8359   8.0979   8.0979   8.8066
     8.8971   8.8971   9.6969  14.1536  17.1119  21.8531  21.8531

     occupation numbers 
     1.0000   1.0000   1.0000   1.0000   1.0000   1.0000   1.0000   1.0000
     1.0000   1.0000   1.0000   1.0000   1.0000   1.0000   1.0000   1.0000
     1.0000   1.0000   1.0000   1.0000   1.0000   1.0000   1.0000   1.0004
     1.0029   1.0029   0.0164   0.0000   0.0000   0.0000   0.0000

          k = 0.0000 0.0000 0.1033 (  1888 PWs)   bands (ev):

  -114.5437-114.5435 -68.7442 -68.7415 -68.7389 -68.7389 -68.7384 -68.7384
    -9.1747  -8.5397   3.1175   3.1551   3.1677   3.1677   3.3353   3.3353
     4.3662   4.3662   4.5502   4.5502   5.1454   8.1524   8.1524   8.2505
     8.8448   8.8448  10.3402  13.9110  17.3282  21.8569  21.9916

     occupation numbers 
     1.0000   1.0000   1.0000   1.0000   1.0000   1.0000   1.0000   1.0000
     1.0000   1.0000   1.0000   1.0000   1.0000   1.0000   1.0000   1.0000
     1.0000   1.0000   1.0000   1.0000   1.0000   1.0000   1.0000   1.0000
     1.0009   1.0009   0.0000   0.0000   0.0000   0.0000   0.0000

          k = 0.0000 0.0000 0.2066 (  1882 PWs)   bands (ev):

  -114.5437-114.5436 -68.7436 -68.7421 -68.7388 -68.7388 -68.7385 -68.7385
    -9.0457  -8.6792   2.9728   3.0410   3.1911   3.1911   3.2870   3.2870
     4.4155   4.4155   4.5226   4.5226   5.8341   7.4542   8.3008   8.3008
     8.7008   8.7008  11.3438  13.2651  17.9560  20.3994  21.9226

     occupation numbers 
     1.0000   1.0000   1.0000   1.0000   1.0000   1.0000   1.0000   1.0000
     1.0000   1.0000   1.0000   1.0000   1.0000   1.0000   1.0000   1.0000
     1.0000   1.0000   1.0000   1.0000   1.0000   1.0000   1.0000   1.0000
     1.0000   1.0000   0.0000   0.0000   0.0000   0.0000   0.0000

          k = 0.0000 0.0000-0.3100 (  1894 PWs)   bands (ev):

  -114.5436-114.5436 -68.7430 -68.7430 -68.7387 -68.7387 -68.7387 -68.7387
    -8.8651  -8.8651   2.9524   2.9524   3.2329   3.2329   3.2329   3.2329
     4.4743   4.4743   4.4743   4.4743   6.6399   6.6399   8.5019   8.5019
     8.5019   8.5019  12.3635  12.3635  18.9874  18.9874  22.1355

     occupation numbers 
     1.0000   1.0000   1.0000   1.0000   1.0000   1.0000   1.0000   1.0000
     1.0000   1.0000   1.0000   1.0000   1.0000   1.0000   1.0000   1.0000
     1.0000   1.0000   1.0000   1.0000   1.0000   1.0000   1.0000   1.0000
     1.0000   1.0000   0.0000   0.0000   0.0000   0.0000   0.0000

          k = 0.0000 0.1283 0.0000 (  1882 PWs)   bands (ev):

  -114.5437-114.5435 -68.7443 -68.7411 -68.7392 -68.7391 -68.7386 -68.7385
    -9.1525  -8.4572   3.0842   3.1998   3.2462   3.3124   3.3712   3.4106
     4.3182   4.3434   4.5645   4.6116   4.8204   7.6526   7.9333   8.2023
     8.7247   8.8085  10.5533  14.6572  17.1082  20.6564  22.2291

     occupation numbers 
     1.0000   1.0000   1.0000   1.0000   1.0000   1.0000   1.0000   1.0000
     1.0000   1.0000   1.0000   1.0000   1.0000   1.0000   1.0000   1.0000
     1.0000   1.0000   1.0000   1.0000   1.0000   1.0000   1.0000   1.0000
     1.0000   1.0004   0.0000   0.0000   0.0000   0.0000   0.0000

          k = 0.0000 0.1283 0.1033 (  1892 PWs)   bands (ev):

  -114.5437-114.5435 -68.7442 -68.7415 -68.7392 -68.7391 -68.7387 -68.7385
    -9.1080  -8.5059   3.0536   3.1527   3.2080   3.2426   3.3662   3.3897
     4.3426   4.3626   4.5546   4.5776   5.1662   7.7006   7.9461   7.9935
     8.6551   8.7514  10.9232  14.3744  17.3358  20.7028  21.9188

     occupation numbers 
     1.0000   1.0000   1.0000   1.0000   1.0000   1.0000   1.0000   1.0000
     1.0000   1.0000   1.0000   1.0000   1.0000   1.0000   1.0000   1.0000
     1.0000   1.0000   1.0000   1.0000   1.0000   1.0000   1.0000   1.0000
     1.0000   1.0001   0.0000   0.0000   0.0000   0.0000   0.0000

          k = 0.0000 0.1283 0.2066 (  1903 PWs)   bands (ev):

  -114.5437-114.5436 -68.7437 -68.7422 -68.7391 -68.7389 -68.7389 -68.7386
    -8.9849  -8.6373   2.9585   2.9824   3.2345   3.2398   3.3221   3.3384
     4.4029   4.4119   4.5234   4.5347   5.8661   7.3304   7.9183   8.1567
     8.4474   8.5942  11.7569  13.6639  17.9621  20.2487  21.0993

     occupation numbers 
     1.0000   1.0000   1.0000   1.0000   1.0000   1.0000   1.0000   1.0000
     1.0000   1.0000   1.0000   1.0000   1.0000   1.0000   1.0000   1.0000
     1.0000   1.0000   1.0000   1.0000   1.0000   1.0000   1.0000   1.0000
     1.0000   1.0000   0.0000   0.0000   0.0000   0.0000   0.0000

          k = 0.0000 0.1283-0.3100 (  1894 PWs)   bands (ev):

  -114.5436-114.5436 -68.7429 -68.7429 -68.7389 -68.7389 -68.7388 -68.7388
    -8.8132  -8.8132   2.9136   2.9136   3.2718   3.2718   3.2804   3.2804
     4.4720   4.4720   4.4742   4.4742   6.6320   6.6320   8.1717   8.1717
     8.3770   8.3770  12.7343  12.7343  18.9547  18.9547  21.3749

     occupation numbers 
     1.0000   1.0000   1.0000   1.0000   1.0000   1.0000   1.0000   1.0000
     1.0000   1.0000   1.0000   1.0000   1.0000   1.0000   1.0000   1.0000
     1.0000   1.0000   1.0000   1.0000   1.0000   1.0000   1.0000   1.0000
     1.0000   1.0000   0.0000   0.0000   0.0000   0.0000   0.0000

          k = 0.0000 0.2566 0.0000 (  1896 PWs)   bands (ev):

  -114.5437-114.5435 -68.7440 -68.7414 -68.7399 -68.7394 -68.7393 -68.7386
    -8.9690  -8.3838   2.9370   3.2584   3.2913   3.3986   3.5652   3.6398
     4.2493   4.3571   4.5768   4.7290   4.8239   6.6528   7.3784   7.5171
     8.4713   8.5721  11.8295  15.7179  17.0780  18.9452  20.8381

     occupation numbers 
     1.0000   1.0000   1.0000   1.0000   1.0000   1.0000   1.0000   1.0000
     1.0000   1.0000   1.0000   1.0000   1.0000   1.0000   1.0000   1.0000
     1.0000   1.0000   1.0000   1.0000   1.0000   1.0000   1.0000   1.0000
     1.0000   1.0000   0.0000   0.0000   0.0000   0.0000   0.0000

          k = 0.0000 0.2566 0.1033 (  1900 PWs)   bands (ev):

  -114.5437-114.5435 -68.7438 -68.7417 -68.7398 -68.7394 -68.7393 -68.7387
    -8.9306  -8.4236   2.9064   3.1546   3.3040   3.3729   3.5384   3.5400
     4.2918   4.3738   4.5639   4.6379   5.2420   6.7263   7.2660   7.5914
     8.4129   8.5040  12.0319  15.3087  17.3421  19.0142  20.7294

     occupation numbers 
     1.0000   1.0000   1.0000   1.0000   1.0000   1.0000   1.0000   1.0000
     1.0000   1.0000   1.0000   1.0000   1.0000   1.0000   1.0000   1.0000
     1.0000   1.0000   1.0000   1.0000   1.0000   1.0000   1.0000   1.0000
     1.0000   1.0000   0.0000   0.0000   0.0000   0.0000   0.0000

          k = 0.0000 0.2566 0.2066 (  1915 PWs)   bands (ev):

  -114.5436-114.5436 -68.7435 -68.7423 -68.7398 -68.7395 -68.7392 -68.7388
    -8.8249  -8.5320   2.8426   2.9426   3.3422   3.3576   3.4437   3.4772
     4.3812   4.4176   4.5274   4.5684   5.8964   6.7733   7.2135   7.7909
     8.1349   8.3167  12.6243  14.4555  17.8907  19.0499  20.4209

     occupation numbers 
     1.0000   1.0000   1.0000   1.0000   1.0000   1.0000   1.0000   1.0000
     1.0000   1.0000   1.0000   1.0000   1.0000   1.0000   1.0000   1.0000
     1.0000   1.0000   1.0000   1.0000   1.0000   1.0000   1.0000   1.0000
     1.0000   1.0000   0.0000   0.0000   0.0000   0.0000   0.0000

          k = 0.0000 0.2566-0.3100 (  1926 PWs)   bands (ev):

  -114.5436-114.5436 -68.7430 -68.7430 -68.7397 -68.7397 -68.7390 -68.7390
    -8.6791  -8.6791   2.8300   2.8300   3.3836   3.3836   3.4037   3.4037
     4.4743   4.4743   4.4812   4.4812   6.4384   6.4384   7.6422   7.6422
     8.0568   8.0568  13.4937  13.4937  18.5741  18.5741  20.5628

     occupation numbers 
     1.0000   1.0000   1.0000   1.0000   1.0000   1.0000   1.0000   1.0000
     1.0000   1.0000   1.0000   1.0000   1.0000   1.0000   1.0000   1.0000
     1.0000   1.0000   1.0000   1.0000   1.0000   1.0000   1.0000   1.0000
     1.0000   1.0000   0.0000   0.0000   0.0000   0.0000   0.0000

          k = 0.0000 0.3849 0.0000 (  1906 PWs)   bands (ev):

  -114.5436-114.5435 -68.7436 -68.7417 -68.7407 -68.7402 -68.7396 -68.7388
    -8.7359  -8.3151   2.8579   3.2120   3.3747   3.5752   3.7740   3.8932
     4.2555   4.4218   4.5911   4.7354   5.0125   5.7162   6.6175   7.0245
     8.0660   8.2833  13.1780  16.4520  16.8722  17.7485  19.9474

     occupation numbers 
     1.0000   1.0000   1.0000   1.0000   1.0000   1.0000   1.0000   1.0000
     1.0000   1.0000   1.0000   1.0000   1.0000   1.0000   1.0000   1.0000
     1.0000   1.0000   1.0000   1.0000   1.0000   1.0000   1.0000   1.0000
     1.0000   1.0000   0.0000   0.0000   0.0000   0.0000   0.0000

          k = 0.0000 0.3849 0.1033 (  1915 PWs)   bands (ev):

  -114.5436-114.5435 -68.7435 -68.7420 -68.7406 -68.7402 -68.7395 -68.7389
    -8.7069  -8.3422   2.8252   3.1122   3.3952   3.5485   3.7394   3.7578
     4.2976   4.4318   4.5769   4.6955   5.2743   5.8618   6.5810   7.1172
     8.0830   8.2039  13.2463  15.8902  17.2481  17.8005  19.9186

     occupation numbers 
     1.0000   1.0000   1.0000   1.0000   1.0000   1.0000   1.0000   1.0000
     1.0000   1.0000   1.0000   1.0000   1.0000   1.0000   1.0000   1.0000
     1.0000   1.0000   1.0000   1.0000   1.0000   1.0000   1.0000   1.0000
     1.0000   1.0000   0.0000   0.0000   0.0000   0.0000   0.0000

          k = 0.0000 0.3849 0.2066 (  1911 PWs)   bands (ev):

  -114.5436-114.5435 -68.7433 -68.7425 -68.7404 -68.7401 -68.7394 -68.7390
    -8.6281  -8.4172   2.7652   2.9022   3.4550   3.5219   3.6184   3.6518
     4.3991   4.4597   4.5418   4.6164   5.5880   6.0007   6.8480   7.3613
     7.9506   7.9850  13.5509  15.0363  17.6155  17.9096  19.9185

     occupation numbers 
     1.0000   1.0000   1.0000   1.0000   1.0000   1.0000   1.0000   1.0000
     1.0000   1.0000   1.0000   1.0000   1.0000   1.0000   1.0000   1.0000
     1.0000   1.0000   1.0000   1.0000   1.0000   1.0000   1.0000   1.0000
     1.0000   1.0000   0.0000   0.0000   0.0000   0.0000   0.0000

          k = 0.0000 0.3849-0.3100 (  1906 PWs)   bands (ev):

  -114.5436-114.5436 -68.7429 -68.7429 -68.7402 -68.7402 -68.7391 -68.7391
    -8.5217  -8.5217   2.7692   2.7692   3.5445   3.5445   3.5466   3.5466
     4.4992   4.4992   4.5134   4.5134   5.8300   5.8300   7.4863   7.4863
     7.6791   7.6791  14.1870  14.1870  17.8564  17.8564  20.3765

     occupation numbers 
     1.0000   1.0000   1.0000   1.0000   1.0000   1.0000   1.0000   1.0000
     1.0000   1.0000   1.0000   1.0000   1.0000   1.0000   1.0000   1.0000
     1.0000   1.0000   1.0000   1.0000   1.0000   1.0000   1.0000   1.0000
     1.0000   1.0000   0.0000   0.0000   0.0000   0.0000   0.0000

          k = 0.0000 0.5132 0.0000 (  1916 PWs)   bands (ev):

  -114.5436-114.5435 -68.7433 -68.7420 -68.7412 -68.7408 -68.7397 -68.7390
    -8.5526  -8.2955   2.9099   3.1505   3.4137   3.7622   3.8446   3.9354
     4.3709   4.5049   4.6048   4.7516   5.0235   5.4210   6.1070   6.6725
     7.6701   8.0816  14.4038  16.0523  16.5119  17.4680  19.5651

     occupation numbers 
     1.0000   1.0000   1.0000   1.0000   1.0000   1.0000   1.0000   1.0000
     1.0000   1.0000   1.0000   1.0000   1.0000   1.0000   1.0000   1.0000
     1.0000   1.0000   1.0000   1.0000   1.0000   1.0000   1.0000   1.0000
     1.0000   1.0000   0.0000   0.0000   0.0000   0.0000   0.0000

          k = 0.0000 0.5132 0.1033 (  1916 PWs)   bands (ev):

  -114.5436-114.5435 -68.7433 -68.7423 -68.7410 -68.7407 -68.7397 -68.7390
    -8.5334  -8.3106   2.8649   3.0507   3.4405   3.7271   3.8008   3.8901
     4.4212   4.5086   4.5907   4.7314   5.0261   5.4419   6.3367   6.7817
     7.7491   7.9949  14.3007  15.7395  16.7988  17.5083  19.5031

     occupation numbers 
     1.0000   1.0000   1.0000   1.0000   1.0000   1.0000   1.0000   1.0000
     1.0000   1.0000   1.0000   1.0000   1.0000   1.0000   1.0000   1.0000
     1.0000   1.0000   1.0000   1.0000   1.0000   1.0000   1.0000   1.0000
     1.0000   1.0000   0.0000   0.0000   0.0000   0.0000   0.0000

          k = 0.0000 0.5132 0.2066 (  1912 PWs)   bands (ev):

  -114.5436-114.5435 -68.7432 -68.7427 -68.7408 -68.7405 -68.7396 -68.7391
    -8.4824  -8.3535   2.7783   2.8617   3.5184   3.6882   3.7353   3.7752
     4.5124   4.5194   4.5628   4.6733   5.1037   5.3601   6.9245   7.0624
     7.7554   7.7872  14.2561  15.1727  17.1621  17.5334  19.6124

     occupation numbers 
     1.0000   1.0000   1.0000   1.0000   1.0000   1.0000   1.0000   1.0000
     1.0000   1.0000   1.0000   1.0000   1.0000   1.0000   1.0000   1.0000
     1.0000   1.0000   1.0000   1.0000   1.0000   1.0000   1.0000   1.0000
     1.0000   1.0000   0.0000   0.0000   0.0000   0.0000   0.0000

          k = 0.0000 0.5132-0.3100 (  1918 PWs)   bands (ev):

  -114.5435-114.5435 -68.7430 -68.7430 -68.7406 -68.7406 -68.7394 -68.7394
    -8.4159  -8.4159   2.7551   2.7551   3.6376   3.6376   3.6924   3.6924
     4.5376   4.5376   4.5991   4.5991   5.2284   5.2284   7.4183   7.4183
     7.5043   7.5043  14.5783  14.5783  17.4135  17.4135  20.2526

     occupation numbers 
     1.0000   1.0000   1.0000   1.0000   1.0000   1.0000   1.0000   1.0000
     1.0000   1.0000   1.0000   1.0000   1.0000   1.0000   1.0000   1.0000
     1.0000   1.0000   1.0000   1.0000   1.0000   1.0000   1.0000   1.0000
     1.0000   1.0000   0.0000   0.0000   0.0000   0.0000   0.0000

          k = 0.1111 0.1925 0.0000 (  1893 PWs)   bands (ev):

  -114.5437-114.5435 -68.7441 -68.7414 -68.7396 -68.7394 -68.7391 -68.7386
    -9.0263  -8.4052   3.0076   3.1995   3.3051   3.3460   3.5241   3.5548
     4.2776   4.3408   4.5718   4.7100   4.8061   7.0635   7.3295   7.7903
     8.5621   8.6000  11.4942  15.4477  17.1081  19.4759  21.0245

     occupation numbers 
     1.0000   1.0000   1.0000   1.0000   1.0000   1.0000   1.0000   1.0000
     1.0000   1.0000   1.0000   1.0000   1.0000   1.0000   1.0000   1.0000
     1.0000   1.0000   1.0000   1.0000   1.0000   1.0000   1.0000   1.0000
     1.0000   1.0000   0.0000   0.0000   0.0000   0.0000   0.0000

          k = 0.1111 0.1925 0.1033 (  1889 PWs)   bands (ev):

  -114.5437-114.5435 -68.7439 -68.7416 -68.7396 -68.7393 -68.7390 -68.7386
    -8.9858  -8.4478   2.9743   3.1317   3.2956   3.3027   3.4779   3.5011
     4.3099   4.3631   4.5598   4.6239   5.2172   7.1448   7.2787   7.7571
     8.4961   8.5330  11.7351  15.0806  17.3567  19.5310  21.0645

     occupation numbers 
     1.0000   1.0000   1.0000   1.0000   1.0000   1.0000   1.0000   1.0000
     1.0000   1.0000   1.0000   1.0000   1.0000   1.0000   1.0000   1.0000
     1.0000   1.0000   1.0000   1.0000   1.0000   1.0000   1.0000   1.0000
     1.0000   1.0000   0.0000   0.0000   0.0000   0.0000   0.0000

          k = 0.1111 0.1925 0.2066 (  1909 PWs)   bands (ev):

  -114.5436-114.5436 -68.7436 -68.7422 -68.7396 -68.7393 -68.7390 -68.7387
    -8.8744  -8.5637   2.8981   2.9462   3.2935   3.3033   3.4083   3.4457
     4.3883   4.4119   4.5245   4.5600   5.9035   7.0094   7.3901   7.8564
     8.2276   8.3502  12.3951  14.2635  17.9425  19.4909  20.7433

     occupation numbers 
     1.0000   1.0000   1.0000   1.0000   1.0000   1.0000   1.0000   1.0000
     1.0000   1.0000   1.0000   1.0000   1.0000   1.0000   1.0000   1.0000
     1.0000   1.0000   1.0000   1.0000   1.0000   1.0000   1.0000   1.0000
     1.0000   1.0000   0.0000   0.0000   0.0000   0.0000   0.0000

          k = 0.1111 0.1925-0.3100 (  1916 PWs)   bands (ev):

  -114.5436-114.5436 -68.7430 -68.7430 -68.7394 -68.7394 -68.7389 -68.7389
    -8.7202  -8.7202   2.8611   2.8611   3.3114   3.3114   3.3935   3.3935
     4.4700   4.4700   4.4810   4.4810   6.5406   6.5406   7.7821   7.7821
     8.1060   8.1060  13.3026  13.3026  18.7657  18.7657  20.6687

     occupation numbers 
     1.0000   1.0000   1.0000   1.0000   1.0000   1.0000   1.0000   1.0000
     1.0000   1.0000   1.0000   1.0000   1.0000   1.0000   1.0000   1.0000
     1.0000   1.0000   1.0000   1.0000   1.0000   1.0000   1.0000   1.0000
     1.0000   1.0000   0.0000   0.0000   0.0000   0.0000   0.0000

          k = 0.1111 0.3208 0.0000 (  1905 PWs)   bands (ev):

  -114.5436-114.5435 -68.7438 -68.7417 -68.7403 -68.7400 -68.7394 -68.7388
    -8.8169  -8.3345   2.9328   3.2057   3.3502   3.4763   3.7124   3.8286
     4.2296   4.3754   4.5848   4.7411   4.9623   6.1734   6.7184   7.1384
     8.2367   8.2693  12.7813  16.3462  17.1773  18.2203  20.1278

     occupation numbers 
     1.0000   1.0000   1.0000   1.0000   1.0000   1.0000   1.0000   1.0000
     1.0000   1.0000   1.0000   1.0000   1.0000   1.0000   1.0000   1.0000
     1.0000   1.0000   1.0000   1.0000   1.0000   1.0000   1.0000   1.0000
     1.0000   1.0000   0.0000   0.0000   0.0000   0.0000   0.0000

          k = 0.1111 0.3208 0.1033 (  1905 PWs)   bands (ev):

  -114.5436-114.5435 -68.7436 -68.7419 -68.7402 -68.7400 -68.7394 -68.7389
    -8.7843  -8.3663   2.8977   3.1293   3.3504   3.4520   3.6708   3.6869
     4.2772   4.4044   4.5715   4.6854   5.3088   6.2818   6.7038   7.1648
     8.1762   8.2378  12.9074  15.8726  17.4159  18.2901  20.2325

     occupation numbers 
     1.0000   1.0000   1.0000   1.0000   1.0000   1.0000   1.0000   1.0000
     1.0000   1.0000   1.0000   1.0000   1.0000   1.0000   1.0000   1.0000
     1.0000   1.0000   1.0000   1.0000   1.0000   1.0000   1.0000   1.0000
     1.0000   1.0000   0.0000   0.0000   0.0000   0.0000   0.0000

          k = 0.1111 0.3208 0.2066 (  1911 PWs)   bands (ev):

  -114.5436-114.5435 -68.7434 -68.7424 -68.7401 -68.7399 -68.7393 -68.7390
    -8.6953  -8.4536   2.8286   2.9369   3.3753   3.4263   3.5498   3.6103
     4.3817   4.4446   4.5376   4.6065   5.7949   6.3586   6.9066   7.3443
     7.9485   8.0566  13.3366  14.9922  17.8060  18.3887  20.0991

     occupation numbers 
     1.0000   1.0000   1.0000   1.0000   1.0000   1.0000   1.0000   1.0000
     1.0000   1.0000   1.0000   1.0000   1.0000   1.0000   1.0000   1.0000
     1.0000   1.0000   1.0000   1.0000   1.0000   1.0000   1.0000   1.0000
     1.0000   1.0000   0.0000   0.0000   0.0000   0.0000   0.0000

          k = 0.1111 0.3208-0.3100 (  1912 PWs)   bands (ev):

  -114.5436-114.5436 -68.7430 -68.7430 -68.7400 -68.7400 -68.7392 -68.7392
    -8.5740  -8.5740   2.8182   2.8182   3.4100   3.4100   3.5405   3.5405
     4.4810   4.4810   4.5114   4.5114   6.1312   6.1312   7.4796   7.4796
     7.7040   7.7040  14.0780  14.0780  18.2137  18.2137  20.1622

     occupation numbers 
     1.0000   1.0000   1.0000   1.0000   1.0000   1.0000   1.0000   1.0000
     1.0000   1.0000   1.0000   1.0000   1.0000   1.0000   1.0000   1.0000
     1.0000   1.0000   1.0000   1.0000   1.0000   1.0000   1.0000   1.0000
     1.0000   1.0000   0.0000   0.0000   0.0000   0.0000   0.0000

          k = 0.1111 0.4491 0.0000 (  1916 PWs)   bands (ev):

  -114.5436-114.5435 -68.7434 -68.7420 -68.7409 -68.7406 -68.7398 -68.7390
    -8.6028  -8.2949   2.9463   3.2310   3.3871   3.6494   3.8810   3.9374
     4.3094   4.4227   4.6058   4.8398   4.9724   5.5976   6.2660   6.5239
     7.7809   7.9808  14.1249  16.5476  16.8644  17.5376  19.7451

     occupation numbers 
     1.0000   1.0000   1.0000   1.0000   1.0000   1.0000   1.0000   1.0000
     1.0000   1.0000   1.0000   1.0000   1.0000   1.0000   1.0000   1.0000
     1.0000   1.0000   1.0000   1.0000   1.0000   1.0000   1.0000   1.0000
     1.0000   1.0000   0.0000   0.0000   0.0000   0.0000   0.0000

          k = 0.1111 0.4491 0.1033 (  1913 PWs)   bands (ev):

  -114.5436-114.5435 -68.7433 -68.7422 -68.7408 -68.7405 -68.7397 -68.7390
    -8.5806  -8.3137   2.9065   3.1374   3.4024   3.6225   3.8112   3.8552
     4.3297   4.4695   4.5955   4.7777   5.1026   5.7097   6.3495   6.6473
     7.8033   7.9261  14.1281  16.1133  17.1582  17.5806  19.6110

     occupation numbers 
     1.0000   1.0000   1.0000   1.0000   1.0000   1.0000   1.0000   1.0000
     1.0000   1.0000   1.0000   1.0000   1.0000   1.0000   1.0000   1.0000
     1.0000   1.0000   1.0000   1.0000   1.0000   1.0000   1.0000   1.0000
     1.0000   1.0000   0.0000   0.0000   0.0000   0.0000   0.0000

          k = 0.1111 0.4491 0.2066 (  1909 PWs)   bands (ev):

  -114.5436-114.5435 -68.7432 -68.7426 -68.7406 -68.7404 -68.7396 -68.7392
    -8.5208  -8.3664   2.8296   2.9400   3.4585   3.5853   3.6990   3.7468
     4.4204   4.5012   4.5792   4.6845   5.3010   5.6726   6.7697   7.0105
     7.5946   7.8785  14.2706  15.4231  17.4473  17.6617  19.4788

     occupation numbers 
     1.0000   1.0000   1.0000   1.0000   1.0000   1.0000   1.0000   1.0000
     1.0000   1.0000   1.0000   1.0000   1.0000   1.0000   1.0000   1.0000
     1.0000   1.0000   1.0000   1.0000   1.0000   1.0000   1.0000   1.0000
     1.0000   1.0000   0.0000   0.0000   0.0000   0.0000   0.0000

          k = 0.1111 0.4491-0.3100 (  1922 PWs)   bands (ev):

  -114.5435-114.5435 -68.7430 -68.7430 -68.7404 -68.7404 -68.7394 -68.7394
    -8.4418  -8.4418   2.8183   2.8183   3.5403   3.5403   3.6689   3.6689
     4.4971   4.4971   4.5992   4.5992   5.4986   5.4986   7.1897   7.1897
     7.5780   7.5780  14.7287  14.7287  17.6252  17.6252  19.7959

     occupation numbers 
     1.0000   1.0000   1.0000   1.0000   1.0000   1.0000   1.0000   1.0000
     1.0000   1.0000   1.0000   1.0000   1.0000   1.0000   1.0000   1.0000
     1.0000   1.0000   1.0000   1.0000   1.0000   1.0000   1.0000   1.0000
     1.0000   1.0000   0.0000   0.0000   0.0000   0.0000   0.0000

          k = 0.1111 0.5774 0.0000 (  1920 PWs)   bands (ev):

  -114.5436-114.5435 -68.7432 -68.7422 -68.7412 -68.7407 -68.7399 -68.7391
    -8.4973  -8.2983   2.9899   3.2609   3.3998   3.7406   3.8580   3.9962
     4.3673   4.4712   4.6276   4.6680   5.1743   5.3896   5.9468   6.4914
     7.4853   7.8646  15.0345  16.0976  16.5223  17.4749  19.5294

     occupation numbers 
     1.0000   1.0000   1.0000   1.0000   1.0000   1.0000   1.0000   1.0000
     1.0000   1.0000   1.0000   1.0000   1.0000   1.0000   1.0000   1.0000
     1.0000   1.0000   1.0000   1.0000   1.0000   1.0000   1.0000   1.0000
     1.0000   1.0000   0.0000   0.0000   0.0000   0.0000   0.0000

          k = 0.1111 0.5774 0.1033 (  1916 PWs)   bands (ev):

  -114.5435-114.5435 -68.7432 -68.7424 -68.7410 -68.7406 -68.7398 -68.7391
    -8.4817  -8.3092   2.9480   3.1423   3.4160   3.7233   3.8275   3.9326
     4.4261   4.4814   4.6292   4.6786   5.1244   5.3374   6.1848   6.6618
     7.5543   7.7959  14.8734  15.9435  16.7332  17.5281  19.3285

     occupation numbers 
     1.0000   1.0000   1.0000   1.0000   1.0000   1.0000   1.0000   1.0000
     1.0000   1.0000   1.0000   1.0000   1.0000   1.0000   1.0000   1.0000
     1.0000   1.0000   1.0000   1.0000   1.0000   1.0000   1.0000   1.0000
     1.0000   1.0000   0.0000   0.0000   0.0000   0.0000   0.0000

          k = 0.1111 0.5774 0.2066 (  1913 PWs)   bands (ev):

  -114.5435-114.5435 -68.7431 -68.7427 -68.7408 -68.7406 -68.7397 -68.7393
    -8.4408  -8.3410   2.8600   2.9370   3.4786   3.6850   3.7780   3.8095
     4.4890   4.4962   4.6620   4.6980   5.0911   5.2302   6.6150   7.1189
     7.4165   7.7686  14.7500  15.5094  17.0883  17.5516  19.2007

     occupation numbers 
     1.0000   1.0000   1.0000   1.0000   1.0000   1.0000   1.0000   1.0000
     1.0000   1.0000   1.0000   1.0000   1.0000   1.0000   1.0000   1.0000
     1.0000   1.0000   1.0000   1.0000   1.0000   1.0000   1.0000   1.0000
     1.0000   1.0000   0.0000   0.0000   0.0000   0.0000   0.0000

          k = 0.1111 0.5774-0.3100 (  1898 PWs)   bands (ev):

  -114.5435-114.5435 -68.7429 -68.7429 -68.7406 -68.7406 -68.7394 -68.7394
    -8.3886  -8.3886   2.8305   2.8305   3.5873   3.5873   3.7574   3.7574
     4.5019   4.5019   4.6987   4.6987   5.1332   5.1332   7.0439   7.0439
     7.5821   7.5821  14.9969  14.9969  17.3801  17.3801  19.6195

     occupation numbers 
     1.0000   1.0000   1.0000   1.0000   1.0000   1.0000   1.0000   1.0000
     1.0000   1.0000   1.0000   1.0000   1.0000   1.0000   1.0000   1.0000
     1.0000   1.0000   1.0000   1.0000   1.0000   1.0000   1.0000   1.0000
     1.0000   1.0000   0.0000   0.0000   0.0000   0.0000   0.0000

          k = 0.2222 0.3849 0.0000 (  1913 PWs)   bands (ev):

  -114.5436-114.5435 -68.7434 -68.7419 -68.7406 -68.7405 -68.7397 -68.7393
    -8.6230  -8.2952   3.0896   3.1343   3.4641   3.5585   3.8861   3.9773
     4.2192   4.3830   4.6072   4.8452   5.0152   5.9674   6.0540   6.4097
     7.7985   7.8756  14.0980  16.5757  17.5761  17.6589  19.8510

     occupation numbers 
     1.0000   1.0000   1.0000   1.0000   1.0000   1.0000   1.0000   1.0000
     1.0000   1.0000   1.0000   1.0000   1.0000   1.0000   1.0000   1.0000
     1.0000   1.0000   1.0000   1.0000   1.0000   1.0000   1.0000   1.0000
     1.0000   1.0000   0.0000   0.0000   0.0000   0.0000   0.0000

          k = 0.2222 0.3849 0.1033 (  1925 PWs)   bands (ev):

  -114.5436-114.5435 -68.7434 -68.7422 -68.7406 -68.7405 -68.7397 -68.7393
    -8.5996  -8.3154   3.0315   3.1056   3.4588   3.5120   3.7935   3.8415
     4.2737   4.4555   4.5986   4.7913   5.2011   5.9818   6.2953   6.4223
     7.6970   7.9288  14.1539  16.2981  17.6054  17.7105  19.7935

     occupation numbers 
     1.0000   1.0000   1.0000   1.0000   1.0000   1.0000   1.0000   1.0000
     1.0000   1.0000   1.0000   1.0000   1.0000   1.0000   1.0000   1.0000
     1.0000   1.0000   1.0000   1.0000   1.0000   1.0000   1.0000   1.0000
     1.0000   1.0000   0.0000   0.0000   0.0000   0.0000   0.0000

          k = 0.2222 0.3849 0.2066 (  1910 PWs)   bands (ev):

  -114.5436-114.5435 -68.7432 -68.7426 -68.7403 -68.7403 -68.7396 -68.7394
    -8.5364  -8.3720   2.9245   2.9878   3.4476   3.4570   3.6679   3.7399
     4.3900   4.4945   4.5872   4.6982   5.4655   5.8847   6.6241   6.8698
     7.4465   7.9075  14.3962  15.6395  17.7414  17.8297  19.4387

     occupation numbers 
     1.0000   1.0000   1.0000   1.0000   1.0000   1.0000   1.0000   1.0000
     1.0000   1.0000   1.0000   1.0000   1.0000   1.0000   1.0000   1.0000
     1.0000   1.0000   1.0000   1.0000   1.0000   1.0000   1.0000   1.0000
     1.0000   1.0000   0.0000   0.0000   0.0000   0.0000   0.0000

          k = 0.2222 0.3849-0.3100 (  1910 PWs)   bands (ev):

  -114.5435-114.5435 -68.7429 -68.7429 -68.7402 -68.7402 -68.7395 -68.7395
    -8.4526  -8.4526   2.8917   2.8917   3.4538   3.4538   3.6595   3.6595
     4.4840   4.4840   4.6092   4.6092   5.6918   5.6918   6.9645   6.9645
     7.5918   7.5918  14.9206  14.9206  17.8776  17.8776  19.2736

     occupation numbers 
     1.0000   1.0000   1.0000   1.0000   1.0000   1.0000   1.0000   1.0000
     1.0000   1.0000   1.0000   1.0000   1.0000   1.0000   1.0000   1.0000
     1.0000   1.0000   1.0000   1.0000   1.0000   1.0000   1.0000   1.0000
     1.0000   1.0000   0.0000   0.0000   0.0000   0.0000   0.0000

          k = 0.2222 0.5132 0.0000 (  1909 PWs)   bands (ev):

  -114.5435-114.5435 -68.7431 -68.7423 -68.7408 -68.7406 -68.7400 -68.7394
    -8.4625  -8.3010   3.0939   3.3670   3.5554   3.6241   3.9781   4.0653
     4.3260   4.3514   4.6204   4.6774   5.1034   5.4843   5.6712   6.4608
     7.3383   7.5339  15.4339  16.5600  16.9331  17.4460  19.6713

     occupation numbers 
     1.0000   1.0000   1.0000   1.0000   1.0000   1.0000   1.0000   1.0000
     1.0000   1.0000   1.0000   1.0000   1.0000   1.0000   1.0000   1.0000
     1.0000   1.0000   1.0000   1.0000   1.0000   1.0000   1.0000   1.0000
     1.0000   1.0000   0.0000   0.0000   0.0000   0.0000   0.0000

          k = 0.2222 0.5132 0.1033 (  1905 PWs)   bands (ev):

  -114.5435-114.5435 -68.7430 -68.7424 -68.7407 -68.7405 -68.7400 -68.7395
    -8.4493  -8.3094   3.0832   3.2863   3.4478   3.6343   3.9150   3.9585
     4.3298   4.4424   4.6308   4.7529   5.0780   5.5212   5.7434   6.6750
     7.2980   7.5779  15.4077  16.4493  17.0356  17.5229  19.1362

     occupation numbers 
     1.0000   1.0000   1.0000   1.0000   1.0000   1.0000   1.0000   1.0000
     1.0000   1.0000   1.0000   1.0000   1.0000   1.0000   1.0000   1.0000
     1.0000   1.0000   1.0000   1.0000   1.0000   1.0000   1.0000   1.0000
     1.0000   1.0000   0.0000   0.0000   0.0000   0.0000   0.0000

          k = 0.2222 0.5132 0.2066 (  1915 PWs)   bands (ev):

  -114.5435-114.5435 -68.7431 -68.7428 -68.7406 -68.7404 -68.7399 -68.7396
    -8.4151  -8.3341   3.0231   3.1047   3.3900   3.5780   3.8322   3.8424
     4.3972   4.4603   4.6846   4.8188   5.1170   5.4101   6.0937   6.9233
     7.2434   7.7134  15.4469  16.1402  17.2460  17.6683  18.4492

     occupation numbers 
     1.0000   1.0000   1.0000   1.0000   1.0000   1.0000   1.0000   1.0000
     1.0000   1.0000   1.0000   1.0000   1.0000   1.0000   1.0000   1.0000
     1.0000   1.0000   1.0000   1.0000   1.0000   1.0000   1.0000   1.0000
     1.0000   1.0000   0.0000   0.0000   0.0000   0.0000   0.0000

          k = 0.2222 0.5132-0.3100 (  1908 PWs)   bands (ev):

  -114.5435-114.5435 -68.7429 -68.7429 -68.7404 -68.7404 -68.7397 -68.7397
    -8.3721  -8.3721   2.9949   2.9949   3.4672   3.4672   3.8058   3.8058
     4.4407   4.4407   4.7655   4.7655   5.2585   5.2585   6.5344   6.5344
     7.6164   7.6164  15.7187  15.7187  17.5082  17.5082  18.5363

     occupation numbers 
     1.0000   1.0000   1.0000   1.0000   1.0000   1.0000   1.0000   1.0000
     1.0000   1.0000   1.0000   1.0000   1.0000   1.0000   1.0000   1.0000
     1.0000   1.0000   1.0000   1.0000   1.0000   1.0000   1.0000   1.0000
     1.0000   1.0000   0.0000   0.0000   0.0000   0.0000   0.0000

          k = 0.3333 0.5774 0.0000 (  1923 PWs)   bands (ev):

  -114.5435-114.5435 -68.7427 -68.7427 -68.7407 -68.7405 -68.7405 -68.7399
    -8.3554  -8.3554   3.1176   3.5191   3.5191   3.8733   4.1528   4.1528
     4.2703   4.4075   4.4355   4.4355   5.1333   5.3531   5.3531   6.9663
     6.9663   7.1569  16.5783  16.6328  16.6328  17.0770  19.6998

     occupation numbers 
     1.0000   1.0000   1.0000   1.0000   1.0000   1.0000   1.0000   1.0000
     1.0000   1.0000   1.0000   1.0000   1.0000   1.0000   1.0000   1.0000
     1.0000   1.0000   1.0000   1.0000   1.0000   1.0000   1.0000   1.0000
     1.0000   1.0000   0.0000   0.0000   0.0000   0.0000   0.0000

          k = 0.3333 0.5774 0.1033 (  1917 PWs)   bands (ev):

  -114.5435-114.5435 -68.7427 -68.7427 -68.7406 -68.7404 -68.7404 -68.7399
    -8.3527  -8.3527   3.1458   3.4207   3.4207   3.7654   4.0367   4.0367
     4.2889   4.4002   4.6007   4.6007   5.3031   5.3077   5.3077   7.0239
     7.1396   7.1396  16.6426  16.6685  16.6685  17.0633  19.1342

     occupation numbers 
     1.0000   1.0000   1.0000   1.0000   1.0000   1.0000   1.0000   1.0000
     1.0000   1.0000   1.0000   1.0000   1.0000   1.0000   1.0000   1.0000
     1.0000   1.0000   1.0000   1.0000   1.0000   1.0000   1.0000   1.0000
     1.0000   1.0000   0.0000   0.0000   0.0000   0.0000   0.0000

          k = 0.3333 0.5774 0.2066 (  1908 PWs)   bands (ev):

  -114.5435-114.5435 -68.7429 -68.7429 -68.7404 -68.7401 -68.7401 -68.7400
    -8.3474  -8.3474   3.2306   3.2316   3.2316   3.5610   3.9530   3.9530
     4.3195   4.3799   4.7935   4.7935   5.2194   5.2194   5.7045   6.6696
     7.4724   7.4724  16.7862  16.7880  16.7880  17.0165  18.2298

     occupation numbers 
     1.0000   1.0000   1.0000   1.0000   1.0000   1.0000   1.0000   1.0000
     1.0000   1.0000   1.0000   1.0000   1.0000   1.0000   1.0000   1.0000
     1.0000   1.0000   1.0000   1.0000   1.0000   1.0000   1.0000   1.0000
     1.0000   1.0000   0.0000   0.0000   0.0000   0.0000   0.0000

          k = 0.3333 0.5774-0.3100 (  1908 PWs)   bands (ev):

  -114.5435-114.5435 -68.7430 -68.7430 -68.7402 -68.7402 -68.7401 -68.7401
    -8.3448  -8.3448   3.1443   3.1443   3.3715   3.3715   3.9312   3.9312
     4.3512   4.3512   4.8786   4.8786   5.1672   5.1672   6.1947   6.1947
     7.6350   7.6350  16.9155  16.9155  16.9245  16.9245  17.7735

     occupation numbers 
     1.0000   1.0000   1.0000   1.0000   1.0000   1.0000   1.0000   1.0000
     1.0000   1.0000   1.0000   1.0000   1.0000   1.0000   1.0000   1.0000
     1.0000   1.0000   1.0000   1.0000   1.0000   1.0000   1.0000   1.0000
     1.0000   1.0000   0.0000   0.0000   0.0000   0.0000   0.0000

     the Fermi energy is     9.4651 ev

     WARNING: integrated charge=    52.00012399, expected=    52.00000000

!    total energy              =   -1006.56836620 Ry
     estimated scf accuracy    <          1.2E-09 Ry
     smearing contrib. (-TS)   =       0.00000134 Ry
     internal energy E=F+TS    =   -1006.56836754 Ry

     The total energy is F=E-TS. E is the sum of the following terms:
     one-electron contribution =    -804.00883401 Ry
     hartree contribution      =     424.16937179 Ry
     xc contribution           =     -99.53045307 Ry
     ewald contribution        =    -508.17051050 Ry
     one-center paw contrib.   =     -19.02794175 Ry
      -> PAW hartree energy AE =      52.90978765 Ry
      -> PAW hartree energy PS =     -52.65836027 Ry
      -> PAW xc energy AE      =     -33.43537188 Ry
      -> PAW xc energy PS      =      14.15600274 Ry
      -> total E_H with PAW    =     424.42079917 Ry
      -> total E_XC with PAW   =    -118.80982221 Ry

     convergence has been achieved in  10 iterations

     Forces acting on atoms (cartesian axes, Ry/au):

     atom    1 type  2   force =     0.00000000    0.00000000   -0.00009657
     atom    2 type  2   force =     0.00000000    0.00000000   -0.00009657
     atom    3 type  1   force =    -0.00000000   -0.00000000    0.00009657
     atom    4 type  1   force =     0.00000000    0.00000000    0.00009657
     The non-local contrib.  to forces
     atom    1 type  2   force =     0.00000000    0.00000000   -0.01248333
     atom    2 type  2   force =    -0.00000000   -0.00000000   -0.01248333
     atom    3 type  1   force =    -0.00000000   -0.00000000    0.00435712
     atom    4 type  1   force =     0.00000000    0.00000000    0.00435712
     The ionic contribution  to forces
     atom    1 type  2   force =    -0.00000062    0.00000036    0.08378819
     atom    2 type  2   force =     0.00000062   -0.00000036    0.08378819
     atom    3 type  1   force =    -0.00000053    0.00000031   -0.08378819
     atom    4 type  1   force =     0.00000053   -0.00000031   -0.08378819
     The local contribution  to forces
     atom    1 type  2   force =    -0.00000967    0.00000558   -0.07139959
     atom    2 type  2   force =     0.00002902   -0.00001675   -0.07140019
     atom    3 type  1   force =    -0.00000056    0.00000033    0.07959226
     atom    4 type  1   force =     0.00000169   -0.00000098    0.07959326
     The core correction contribution to forces
     atom    1 type  2   force =     0.00000000    0.00000000    0.00000000
     atom    2 type  2   force =     0.00000000    0.00000000    0.00000000
     atom    3 type  1   force =    -0.00000000    0.00000000   -0.00006674
     atom    4 type  1   force =     0.00000000   -0.00000000   -0.00006674
     The Hubbard contrib.    to forces
     atom    1 type  2   force =     0.00000000    0.00000000    0.00000000
     atom    2 type  2   force =     0.00000000    0.00000000    0.00000000
     atom    3 type  1   force =     0.00000000    0.00000000    0.00000000
     atom    4 type  1   force =     0.00000000    0.00000000    0.00000000
     The SCF correction term to forces
     atom    1 type  2   force =    -0.00000000    0.00000000   -0.00000564
     atom    2 type  2   force =     0.00000000   -0.00000000   -0.00000564
     atom    3 type  1   force =    -0.00000000    0.00000000   -0.00000251
     atom    4 type  1   force =     0.00000000   -0.00000000   -0.00000251

     Total force =     0.000193     Total SCF correction =     0.000009


     Computing stress (Cartesian axis) and pressure

          total   stress  (Ry/bohr**3)                   (kbar)     P=       54.42
   0.00036864   0.00000000   0.00000000           54.23        0.00        0.00
   0.00000000   0.00036864   0.00000000            0.00       54.23        0.00
   0.00000000   0.00000000   0.00037261            0.00        0.00       54.81

     kinetic stress (kbar)  35028.54      0.00      0.00
                                0.00  35028.54     -0.00
                                0.00     -0.00  35057.57

     local   stress (kbar)  -5379.46     -0.00     -0.00
                               -0.00  -5379.46      0.00
                               -0.00      0.00  -9549.70

     nonloc. stress (kbar)   -723.65      0.00      0.00
                                0.00   -723.65     -0.00
                                0.00     -0.00   -736.49

     hartree stress (kbar)  64367.63     -0.00     -0.00
                               -0.00  64367.63      0.00
                               -0.00      0.00  66347.18

     exc-cor stress (kbar) -14217.71      0.00     -0.00
                                0.00 -14217.71      0.00
                               -0.00      0.00 -14217.83

     corecor stress (kbar)   -390.72     -0.00      0.00
                               -0.00   -390.72     -0.00
                                0.00     -0.00   -390.75

     ewald   stress (kbar) -78630.39      0.00      0.00
                                0.00 -78630.39      0.00
                                0.00      0.00 -76455.16

     hubbard stress (kbar)      0.00      0.00      0.00
                                0.00      0.00      0.00
                                0.00      0.00      0.00

     DFT-D   stress (kbar)      0.00      0.00      0.00
                                0.00      0.00      0.00
                                0.00      0.00      0.00

     XDM     stress (kbar)      0.00      0.00      0.00
                                0.00      0.00      0.00
                                0.00      0.00      0.00

     dft-nl  stress (kbar)      0.00      0.00      0.00
                                0.00      0.00      0.00
                                0.00      0.00      0.00

     TS-vdW  stress (kbar)      0.00      0.00      0.00
                                0.00      0.00      0.00
                                0.00      0.00      0.00

     MDB     stress (kbar)      0.00      0.00      0.00
                                0.00      0.00      0.00
                                0.00      0.00      0.00

     3D-RISM stress (kbar)      0.00      0.00      0.00
                                0.00      0.00      0.00
                                0.00      0.00      0.00


     Writing all to output data dir ./temp_hexag/aiida.save/ :
     XML data file, charge density, pseudopotentials, collected wavefunctions

     init_run     :     76.22s CPU      3.71s WALL (       1 calls)
     electrons    :   2256.06s CPU    107.70s WALL (       1 calls)
     forces       :     27.74s CPU      1.28s WALL (       1 calls)
     stress       :     24.87s CPU      1.65s WALL (       1 calls)

     Called by init_run:
     wfcinit      :     70.91s CPU      3.22s WALL (       1 calls)
     wfcinit:atom :      1.22s CPU      0.06s WALL (      48 calls)
     wfcinit:wfcr :     67.94s CPU      3.00s WALL (      48 calls)
     potinit      :      2.55s CPU      0.12s WALL (       1 calls)
     hinit0       :      1.38s CPU      0.23s WALL (       1 calls)

     Called by electrons:
     c_bands      :   2000.21s CPU     95.28s WALL (      10 calls)
     sum_band     :    236.45s CPU     10.89s WALL (      10 calls)
     v_of_rho     :      4.98s CPU      0.23s WALL (      11 calls)
     v_h          :      0.33s CPU      0.03s WALL (      11 calls)
     v_xc         :      5.77s CPU      0.26s WALL (      13 calls)
     newd         :     11.53s CPU      1.14s WALL (      11 calls)
     PAW_pot      :      4.15s CPU      0.19s WALL (      11 calls)
     mix_rho      :      1.24s CPU      0.05s WALL (      10 calls)

     Called by c_bands:
     init_us_2    :     14.95s CPU      0.81s WALL (    1104 calls)
     cegterg      :   1966.85s CPU     93.47s WALL (     480 calls)

     Called by sum_band:
     sum_band:wei :      0.12s CPU      0.01s WALL (      10 calls)
     sum_band:loo :    230.63s CPU      9.67s WALL (      10 calls)
     sum_band:buf :      0.70s CPU      0.05s WALL (     480 calls)
     sum_band:ini :      5.66s CPU      0.21s WALL (     480 calls)
     sum_band:cal :     49.64s CPU      2.09s WALL (     480 calls)
     sum_band:bec :      8.65s CPU      0.34s WALL (     480 calls)
     addusdens    :      4.79s CPU      1.11s WALL (      10 calls)
                                        0.00s GPU  (      10 calls)
     addusd:skk   :      0.00s CPU      0.00s WALL (      20 calls)
                                        0.00s GPU  (      20 calls)

     Called by *egterg:
     cdiaghg      :     20.02s CPU      1.38s WALL (    1719 calls)
     cegterg:over :    151.29s CPU      6.32s WALL (    1239 calls)
     cegterg:upda :     60.01s CPU      4.59s WALL (    1239 calls)
     cegterg:last :     52.58s CPU      7.03s WALL (     981 calls)
     h_psi        :   1531.51s CPU     66.22s WALL (    1767 calls)
     s_psi        :    115.14s CPU      6.04s WALL (    1767 calls)
     g_psi        :     10.16s CPU      0.50s WALL (    1239 calls)

     Called by h_psi:
     h_psi:calbec :    133.34s CPU      5.53s WALL (    1767 calls)
     vloc_psi     :   1229.73s CPU     54.09s WALL (    1767 calls)
     add_vuspsi   :    156.11s CPU      5.86s WALL (    1767 calls)

     General routines
     calbec       :    208.33s CPU      8.65s WALL (    2487 calls)
     fft          :      4.80s CPU      0.22s WALL (     166 calls)
     ffts         :      0.62s CPU      0.01s WALL (      21 calls)
     fftw         :    547.72s CPU     24.96s WALL (   90518 calls)
     interpolate  :      0.61s CPU      0.02s WALL (      11 calls)

     Parallel routines

     PAW routines
     PAW_pot      :      4.15s CPU      0.19s WALL (      11 calls)
     PAW_symme    :      0.00s CPU      0.00s WALL (      21 calls)

     PWSCF        :  39m58.48s CPU   1m55.48s WALL


   This run was terminated on:  15:50:10   9Jun2024            

=------------------------------------------------------------------------------=
   JOB DONE.
=------------------------------------------------------------------------------=
