
     Program PWSCF v.7.3.1 starts on 12Jun2024 at 14:15:17 

     This program is part of the open-source Quantum ESPRESSO suite
     for quantum simulation of materials; please cite
         "P. Giannozzi et al., J. Phys.:Condens. Matter 21 395502 (2009);
         "P. Giannozzi et al., J. Phys.:Condens. Matter 29 465901 (2017);
         "P. Giannozzi et al., J. Chem. Phys. 152 154105 (2020);
          URL http://www.quantum-espresso.org", 
     in publications or presentations arising from this work. More details at
     http://www.quantum-espresso.org/quote

     Parallel version (MPI & OpenMP), running on      24 processor cores
     Number of MPI processes:                 1
     Threads/MPI process:                    24

     MPI processes distributed on     1 nodes
     5130 MiB available memory on the printing compute node when the environment starts

     Waiting for input...
     Reading input from standard input

     Current dimensions of program PWSCF are:
     Max number of different atomic species (ntypx) = 10
     Max number of k-points (npk) =  40000
     Max angular momentum in pseudopotentials (lmaxx) =  4
     file O.pbe-n-kjpaw_psl.0.1.UPF: wavefunction(s)  2P renormalized
     Message from routine setup:
     using ibrav=0 with symmetry is DISCOURAGED, use correct ibrav instead

     Subspace diagonalization in iterative solution of the eigenvalue problem:
     a serial algorithm will be used


     G-vector sticks info
     --------------------
     sticks:   dense  smooth     PW     G-vecs:    dense   smooth      PW
     Sum         253     121     55                 5359     1883     403

     Using Slab Decomposition



     bravais-lattice index     =            0
     lattice parameter (alat)  =       6.1177  a.u.
     unit-cell volume          =     319.8518 (a.u.)^3
     number of atoms/cell      =            4
     number of atomic types    =            2
     number of electrons       =        52.00
     number of Kohn-Sham states=           31
     kinetic-energy cutoff     =      12.5000  Ry
     charge density cutoff     =     100.0000  Ry
     scf convergence threshold =      2.0E-08
     mixing beta               =       0.4000
     number of iterations used =            8  plain     mixing
     Exchange-correlation= SLA  PW   PBE  PBE
                           (   1   4   3   4   0   0   0)

     celldm(1)=   6.117707  celldm(2)=   0.000000  celldm(3)=   0.000000
     celldm(4)=   0.000000  celldm(5)=   0.000000  celldm(6)=   0.000000

     crystal axes: (cart. coord. in units of alat)
               a(1) = (   1.000000   0.000000   0.000000 )  
               a(2) = (  -0.500000   0.866025   0.000000 )  
               a(3) = (   0.000000   0.000000   1.613066 )  

     reciprocal axes: (cart. coord. in units 2 pi/alat)
               b(1) = (  1.000000  0.577350 -0.000000 )  
               b(2) = (  0.000000  1.154701  0.000000 )  
               b(3) = (  0.000000 -0.000000  0.619937 )  


     PseudoPot. # 1 for O  read from file:
     ../SSSP_1.3.0_PBE_efficiency/O.pbe-n-kjpaw_psl.0.1.UPF
     MD5 check sum: 0234752ac141de4415c5fc33072bef88
     Pseudo is Projector augmented-wave + core cor, Zval =  6.0
     Generated using "atomic" code by A. Dal Corso  v.5.0.99 svn rev. 10869
     Shape of augmentation charge: BESSEL
     Using radial grid of 1095 points,  4 beta functions with: 
                l(1) =   0
                l(2) =   0
                l(3) =   1
                l(4) =   1
     Q(r) pseudized with 0 coefficients 


     PseudoPot. # 2 for Zn read from file:
     ../SSSP_1.3.0_PBE_efficiency/Zn_pbe_v1.uspp.F.UPF
     MD5 check sum: df62231357ef9e81f77b2b3087fa5675
     Pseudo is Ultrasoft, Zval = 20.0
     Generated by new atomic code, or converted to UPF format
     Using radial grid of  943 points,  6 beta functions with: 
                l(1) =   0
                l(2) =   0
                l(3) =   1
                l(4) =   1
                l(5) =   2
                l(6) =   2
     Q(r) pseudized with  8 coefficients,  rinner =    1.100   1.100   1.100
                                                       1.100   1.100

     atomic species   valence    mass     pseudopotential
     O                 6.00    15.99940     O ( 1.00)
     Zn               20.00    65.38000     Zn( 1.00)

     12 Sym. Ops. (no inversion) found ( 6 have fractional translation)


                                    s                        frac. trans.

      isym =  1     identity                                     

 cryst.   s( 1) = (     1          0          0      )
                  (     0          1          0      )
                  (     0          0          1      )

 cart.    s( 1) = (  1.0000000  0.0000000  0.0000000 )
                  (  0.0000000  1.0000000  0.0000000 )
                  (  0.0000000  0.0000000  1.0000000 )


      isym =  2     180 deg rotation - cart. axis [0,0,1]        

 cryst.   s( 2) = (    -1          0          0      )    f =(  0.0000000 )
                  (     0         -1          0      )       ( -0.0000000 )
                  (     0          0          1      )       (  0.5000000 )

 cart.    s( 2) = ( -1.0000000  0.0000000  0.0000000 )    f =(  0.0000000 )
                  (  0.0000000 -1.0000000  0.0000000 )       ( -0.0000000 )
                  (  0.0000000  0.0000000  1.0000000 )       (  0.8065331 )


      isym =  3      60 deg rotation - cryst. axis [0,0,1]       

 cryst.   s( 3) = (     1          1          0      )    f =( -0.0000000 )
                  (    -1          0          0      )       (  0.0000000 )
                  (     0          0          1      )       (  0.5000000 )

 cart.    s( 3) = (  0.5000000 -0.8660254  0.0000000 )    f =( -0.0000000 )
                  (  0.8660254  0.5000000  0.0000000 )       (  0.0000000 )
                  (  0.0000000  0.0000000  1.0000000 )       (  0.8065331 )


      isym =  4      60 deg rotation - cryst. axis [0,0,-1]      

 cryst.   s( 4) = (     0         -1          0      )    f =(  0.0000000 )
                  (     1          1          0      )       (  0.0000000 )
                  (     0          0          1      )       (  0.5000000 )

 cart.    s( 4) = (  0.5000000  0.8660254  0.0000000 )    f =( -0.0000000 )
                  ( -0.8660254  0.5000000  0.0000000 )       (  0.0000000 )
                  (  0.0000000  0.0000000  1.0000000 )       (  0.8065331 )


      isym =  5     120 deg rotation - cryst. axis [0,0,1]       

 cryst.   s( 5) = (     0          1          0      )
                  (    -1         -1          0      )
                  (     0          0          1      )

 cart.    s( 5) = ( -0.5000000 -0.8660254  0.0000000 )
                  (  0.8660254 -0.5000000  0.0000000 )
                  (  0.0000000  0.0000000  1.0000000 )


      isym =  6     120 deg rotation - cryst. axis [0,0,-1]      

 cryst.   s( 6) = (    -1         -1          0      )
                  (     1          0          0      )
                  (     0          0          1      )

 cart.    s( 6) = ( -0.5000000  0.8660254  0.0000000 )
                  ( -0.8660254 -0.5000000  0.0000000 )
                  (  0.0000000  0.0000000  1.0000000 )


      isym =  7     inv. 180 deg rotation - cart. axis [0,1,0]   

 cryst.   s( 7) = (     1          0          0      )    f =( -0.0000000 )
                  (    -1         -1          0      )       ( -0.0000000 )
                  (     0          0          1      )       (  0.5000000 )

 cart.    s( 7) = (  1.0000000  0.0000000  0.0000000 )    f =( -0.0000000 )
                  (  0.0000000 -1.0000000  0.0000000 )       ( -0.0000000 )
                  (  0.0000000  0.0000000  1.0000000 )       (  0.8065331 )


      isym =  8     inv. 180 deg rotation - cart. axis [1,0,0]   

 cryst.   s( 8) = (    -1          0          0      )
                  (     1          1          0      )
                  (     0          0          1      )

 cart.    s( 8) = ( -1.0000000  0.0000000  0.0000000 )
                  (  0.0000000  1.0000000  0.0000000 )
                  (  0.0000000  0.0000000  1.0000000 )


      isym =  9     inv. 180 deg rotation - cryst. axis [1,-1,0] 

 cryst.   s( 9) = (     0          1          0      )    f =(  0.0000000 )
                  (     1          0          0      )       (  0.0000000 )
                  (     0          0          1      )       (  0.5000000 )

 cart.    s( 9) = ( -0.5000000  0.8660254  0.0000000 )    f =(  0.0000000 )
                  (  0.8660254  0.5000000  0.0000000 )       (  0.0000000 )
                  (  0.0000000  0.0000000  1.0000000 )       (  0.8065331 )


      isym = 10     inv. 180 deg rotation - cryst. axis [2,1,0]  

 cryst.   s(10) = (    -1         -1          0      )    f =(  0.0000000 )
                  (     0          1          0      )       (  0.0000000 )
                  (     0          0          1      )       (  0.5000000 )

 cart.    s(10) = ( -0.5000000 -0.8660254  0.0000000 )    f =( -0.0000000 )
                  ( -0.8660254  0.5000000  0.0000000 )       (  0.0000000 )
                  (  0.0000000  0.0000000  1.0000000 )       (  0.8065331 )


      isym = 11     inv. 180 deg rotation - cryst. axis [0,1,0]  

 cryst.   s(11) = (     1          1          0      )
                  (     0         -1          0      )
                  (     0          0          1      )

 cart.    s(11) = (  0.5000000  0.8660254  0.0000000 )
                  (  0.8660254 -0.5000000  0.0000000 )
                  (  0.0000000  0.0000000  1.0000000 )


      isym = 12     inv. 180 deg rotation - cryst. axis [1,1,0]  

 cryst.   s(12) = (     0         -1          0      )
                  (    -1          0          0      )
                  (     0          0          1      )

 cart.    s(12) = (  0.5000000 -0.8660254  0.0000000 )
                  ( -0.8660254 -0.5000000  0.0000000 )
                  (  0.0000000  0.0000000  1.0000000 )


   Cartesian axes

     site n.     atom                  positions (alat units)
         1        Zn     tau(   1) = (   0.5000000   0.2886751   0.8074875  )
         2        Zn     tau(   2) = (  -0.0000000   0.5773503   0.0009545  )
         3        O      tau(   3) = (   0.5000000   0.2886751   1.4190438  )
         4        O      tau(   4) = (  -0.0000000   0.5773503   0.6125107  )

   Crystallographic axes

     site n.     atom                  positions (cryst. coord.)
         1        Zn     tau(   1) = (  0.6666667  0.3333333  0.5005917  )
         2        Zn     tau(   2) = (  0.3333333  0.6666667  0.0005917  )
         3        O      tau(   3) = (  0.6666667  0.3333333  0.8797183  )
         4        O      tau(   4) = (  0.3333333  0.6666667  0.3797183  )

     number of k points=    95  Marzari-Vanderbilt smearing, width (Ry)=  0.0037
                       cart. coord. in units 2pi/alat
        k(    1) = (   0.0000000   0.0000000   0.0000000), wk =   0.0017361
        k(    2) = (   0.0000000   0.0000000   0.0774922), wk =   0.0034722
        k(    3) = (   0.0000000   0.0000000   0.1549843), wk =   0.0034722
        k(    4) = (   0.0000000   0.0000000   0.2324765), wk =   0.0034722
        k(    5) = (   0.0000000   0.0000000  -0.3099687), wk =   0.0017361
        k(    6) = (   0.0000000   0.0962250   0.0000000), wk =   0.0104167
        k(    7) = (   0.0000000   0.0962250   0.0774922), wk =   0.0208333
        k(    8) = (   0.0000000   0.0962250   0.1549843), wk =   0.0208333
        k(    9) = (   0.0000000   0.0962250   0.2324765), wk =   0.0208333
        k(   10) = (   0.0000000   0.0962250  -0.3099687), wk =   0.0104167
        k(   11) = (   0.0000000   0.1924501   0.0000000), wk =   0.0104167
        k(   12) = (   0.0000000   0.1924501   0.0774922), wk =   0.0208333
        k(   13) = (   0.0000000   0.1924501   0.1549843), wk =   0.0208333
        k(   14) = (   0.0000000   0.1924501   0.2324765), wk =   0.0208333
        k(   15) = (   0.0000000   0.1924501  -0.3099687), wk =   0.0104167
        k(   16) = (   0.0000000   0.2886751   0.0000000), wk =   0.0104167
        k(   17) = (   0.0000000   0.2886751   0.0774922), wk =   0.0208333
        k(   18) = (   0.0000000   0.2886751   0.1549843), wk =   0.0208333
        k(   19) = (   0.0000000   0.2886751   0.2324765), wk =   0.0208333
        k(   20) = (   0.0000000   0.2886751  -0.3099687), wk =   0.0104167
        k(   21) = (   0.0000000   0.3849002   0.0000000), wk =   0.0104167
        k(   22) = (   0.0000000   0.3849002   0.0774922), wk =   0.0208333
        k(   23) = (   0.0000000   0.3849002   0.1549843), wk =   0.0208333
        k(   24) = (   0.0000000   0.3849002   0.2324765), wk =   0.0208333
        k(   25) = (   0.0000000   0.3849002  -0.3099687), wk =   0.0104167
        k(   26) = (   0.0000000   0.4811252   0.0000000), wk =   0.0104167
        k(   27) = (   0.0000000   0.4811252   0.0774922), wk =   0.0208333
        k(   28) = (   0.0000000   0.4811252   0.1549843), wk =   0.0208333
        k(   29) = (   0.0000000   0.4811252   0.2324765), wk =   0.0208333
        k(   30) = (   0.0000000   0.4811252  -0.3099687), wk =   0.0104167
        k(   31) = (   0.0000000  -0.5773503   0.0000000), wk =   0.0052083
        k(   32) = (   0.0000000  -0.5773503   0.0774922), wk =   0.0104167
        k(   33) = (   0.0000000  -0.5773503   0.1549843), wk =   0.0104167
        k(   34) = (   0.0000000  -0.5773503   0.2324765), wk =   0.0104167
        k(   35) = (   0.0000000  -0.5773503  -0.3099687), wk =   0.0052083
        k(   36) = (   0.0833333   0.1443376   0.0000000), wk =   0.0104167
        k(   37) = (   0.0833333   0.1443376   0.0774922), wk =   0.0208333
        k(   38) = (   0.0833333   0.1443376   0.1549843), wk =   0.0208333
        k(   39) = (   0.0833333   0.1443376   0.2324765), wk =   0.0208333
        k(   40) = (   0.0833333   0.1443376  -0.3099687), wk =   0.0104167
        k(   41) = (   0.0833333   0.2405626   0.0000000), wk =   0.0208333
        k(   42) = (   0.0833333   0.2405626   0.0774922), wk =   0.0416667
        k(   43) = (   0.0833333   0.2405626   0.1549843), wk =   0.0416667
        k(   44) = (   0.0833333   0.2405626   0.2324765), wk =   0.0416667
        k(   45) = (   0.0833333   0.2405626  -0.3099687), wk =   0.0208333
        k(   46) = (   0.0833333   0.3367877   0.0000000), wk =   0.0208333
        k(   47) = (   0.0833333   0.3367877   0.0774922), wk =   0.0416667
        k(   48) = (   0.0833333   0.3367877   0.1549843), wk =   0.0416667
        k(   49) = (   0.0833333   0.3367877   0.2324765), wk =   0.0416667
        k(   50) = (   0.0833333   0.3367877  -0.3099687), wk =   0.0208333
        k(   51) = (   0.0833333   0.4330127   0.0000000), wk =   0.0208333
        k(   52) = (   0.0833333   0.4330127   0.0774922), wk =   0.0416667
        k(   53) = (   0.0833333   0.4330127   0.1549843), wk =   0.0416667
        k(   54) = (   0.0833333   0.4330127   0.2324765), wk =   0.0416667
        k(   55) = (   0.0833333   0.4330127  -0.3099687), wk =   0.0208333
        k(   56) = (   0.0833333   0.5292377   0.0000000), wk =   0.0208333
        k(   57) = (   0.0833333   0.5292377   0.0774922), wk =   0.0416667
        k(   58) = (   0.0833333   0.5292377   0.1549843), wk =   0.0416667
        k(   59) = (   0.0833333   0.5292377   0.2324765), wk =   0.0416667
        k(   60) = (   0.0833333   0.5292377  -0.3099687), wk =   0.0208333
        k(   61) = (   0.1666667   0.2886751   0.0000000), wk =   0.0104167
        k(   62) = (   0.1666667   0.2886751   0.0774922), wk =   0.0208333
        k(   63) = (   0.1666667   0.2886751   0.1549843), wk =   0.0208333
        k(   64) = (   0.1666667   0.2886751   0.2324765), wk =   0.0208333
        k(   65) = (   0.1666667   0.2886751  -0.3099687), wk =   0.0104167
        k(   66) = (   0.1666667   0.3849002   0.0000000), wk =   0.0208333
        k(   67) = (   0.1666667   0.3849002   0.0774922), wk =   0.0416667
        k(   68) = (   0.1666667   0.3849002   0.1549843), wk =   0.0416667
        k(   69) = (   0.1666667   0.3849002   0.2324765), wk =   0.0416667
        k(   70) = (   0.1666667   0.3849002  -0.3099687), wk =   0.0208333
        k(   71) = (   0.1666667   0.4811252   0.0000000), wk =   0.0208333
        k(   72) = (   0.1666667   0.4811252   0.0774922), wk =   0.0416667
        k(   73) = (   0.1666667   0.4811252   0.1549843), wk =   0.0416667
        k(   74) = (   0.1666667   0.4811252   0.2324765), wk =   0.0416667
        k(   75) = (   0.1666667   0.4811252  -0.3099687), wk =   0.0208333
        k(   76) = (   0.1666667   0.5773503   0.0000000), wk =   0.0104167
        k(   77) = (   0.1666667   0.5773503   0.0774922), wk =   0.0208333
        k(   78) = (   0.1666667   0.5773503   0.1549843), wk =   0.0208333
        k(   79) = (   0.1666667   0.5773503   0.2324765), wk =   0.0208333
        k(   80) = (   0.1666667   0.5773503  -0.3099687), wk =   0.0104167
        k(   81) = (   0.2500000   0.4330127   0.0000000), wk =   0.0104167
        k(   82) = (   0.2500000   0.4330127   0.0774922), wk =   0.0208333
        k(   83) = (   0.2500000   0.4330127   0.1549843), wk =   0.0208333
        k(   84) = (   0.2500000   0.4330127   0.2324765), wk =   0.0208333
        k(   85) = (   0.2500000   0.4330127  -0.3099687), wk =   0.0104167
        k(   86) = (   0.2500000   0.5292377   0.0000000), wk =   0.0208333
        k(   87) = (   0.2500000   0.5292377   0.0774922), wk =   0.0416667
        k(   88) = (   0.2500000   0.5292377   0.1549843), wk =   0.0416667
        k(   89) = (   0.2500000   0.5292377   0.2324765), wk =   0.0416667
        k(   90) = (   0.2500000   0.5292377  -0.3099687), wk =   0.0208333
        k(   91) = (   0.3333333   0.5773503   0.0000000), wk =   0.0034722
        k(   92) = (   0.3333333   0.5773503   0.0774922), wk =   0.0069444
        k(   93) = (   0.3333333   0.5773503   0.1549843), wk =   0.0069444
        k(   94) = (   0.3333333   0.5773503   0.2324765), wk =   0.0069444
        k(   95) = (   0.3333333   0.5773503  -0.3099687), wk =   0.0034722

                       cryst. coord.
        k(    1) = (   0.0000000   0.0000000   0.0000000), wk =   0.0017361
        k(    2) = (   0.0000000   0.0000000   0.1250000), wk =   0.0034722
        k(    3) = (   0.0000000   0.0000000   0.2500000), wk =   0.0034722
        k(    4) = (   0.0000000   0.0000000   0.3750000), wk =   0.0034722
        k(    5) = (   0.0000000   0.0000000  -0.5000000), wk =   0.0017361
        k(    6) = (   0.0000000   0.0833333   0.0000000), wk =   0.0104167
        k(    7) = (   0.0000000   0.0833333   0.1250000), wk =   0.0208333
        k(    8) = (   0.0000000   0.0833333   0.2500000), wk =   0.0208333
        k(    9) = (   0.0000000   0.0833333   0.3750000), wk =   0.0208333
        k(   10) = (   0.0000000   0.0833333  -0.5000000), wk =   0.0104167
        k(   11) = (   0.0000000   0.1666667   0.0000000), wk =   0.0104167
        k(   12) = (   0.0000000   0.1666667   0.1250000), wk =   0.0208333
        k(   13) = (   0.0000000   0.1666667   0.2500000), wk =   0.0208333
        k(   14) = (   0.0000000   0.1666667   0.3750000), wk =   0.0208333
        k(   15) = (   0.0000000   0.1666667  -0.5000000), wk =   0.0104167
        k(   16) = (   0.0000000   0.2500000   0.0000000), wk =   0.0104167
        k(   17) = (   0.0000000   0.2500000   0.1250000), wk =   0.0208333
        k(   18) = (   0.0000000   0.2500000   0.2500000), wk =   0.0208333
        k(   19) = (   0.0000000   0.2500000   0.3750000), wk =   0.0208333
        k(   20) = (   0.0000000   0.2500000  -0.5000000), wk =   0.0104167
        k(   21) = (   0.0000000   0.3333333   0.0000000), wk =   0.0104167
        k(   22) = (   0.0000000   0.3333333   0.1250000), wk =   0.0208333
        k(   23) = (   0.0000000   0.3333333   0.2500000), wk =   0.0208333
        k(   24) = (   0.0000000   0.3333333   0.3750000), wk =   0.0208333
        k(   25) = (   0.0000000   0.3333333  -0.5000000), wk =   0.0104167
        k(   26) = (   0.0000000   0.4166667   0.0000000), wk =   0.0104167
        k(   27) = (   0.0000000   0.4166667   0.1250000), wk =   0.0208333
        k(   28) = (   0.0000000   0.4166667   0.2500000), wk =   0.0208333
        k(   29) = (   0.0000000   0.4166667   0.3750000), wk =   0.0208333
        k(   30) = (   0.0000000   0.4166667  -0.5000000), wk =   0.0104167
        k(   31) = (   0.0000000  -0.5000000   0.0000000), wk =   0.0052083
        k(   32) = (   0.0000000  -0.5000000   0.1250000), wk =   0.0104167
        k(   33) = (   0.0000000  -0.5000000   0.2500000), wk =   0.0104167
        k(   34) = (   0.0000000  -0.5000000   0.3750000), wk =   0.0104167
        k(   35) = (   0.0000000  -0.5000000  -0.5000000), wk =   0.0052083
        k(   36) = (   0.0833333   0.0833333   0.0000000), wk =   0.0104167
        k(   37) = (   0.0833333   0.0833333   0.1250000), wk =   0.0208333
        k(   38) = (   0.0833333   0.0833333   0.2500000), wk =   0.0208333
        k(   39) = (   0.0833333   0.0833333   0.3750000), wk =   0.0208333
        k(   40) = (   0.0833333   0.0833333  -0.5000000), wk =   0.0104167
        k(   41) = (   0.0833333   0.1666667   0.0000000), wk =   0.0208333
        k(   42) = (   0.0833333   0.1666667   0.1250000), wk =   0.0416667
        k(   43) = (   0.0833333   0.1666667   0.2500000), wk =   0.0416667
        k(   44) = (   0.0833333   0.1666667   0.3750000), wk =   0.0416667
        k(   45) = (   0.0833333   0.1666667  -0.5000000), wk =   0.0208333
        k(   46) = (   0.0833333   0.2500000   0.0000000), wk =   0.0208333
        k(   47) = (   0.0833333   0.2500000   0.1250000), wk =   0.0416667
        k(   48) = (   0.0833333   0.2500000   0.2500000), wk =   0.0416667
        k(   49) = (   0.0833333   0.2500000   0.3750000), wk =   0.0416667
        k(   50) = (   0.0833333   0.2500000  -0.5000000), wk =   0.0208333
        k(   51) = (   0.0833333   0.3333333   0.0000000), wk =   0.0208333
        k(   52) = (   0.0833333   0.3333333   0.1250000), wk =   0.0416667
        k(   53) = (   0.0833333   0.3333333   0.2500000), wk =   0.0416667
        k(   54) = (   0.0833333   0.3333333   0.3750000), wk =   0.0416667
        k(   55) = (   0.0833333   0.3333333  -0.5000000), wk =   0.0208333
        k(   56) = (   0.0833333   0.4166667   0.0000000), wk =   0.0208333
        k(   57) = (   0.0833333   0.4166667   0.1250000), wk =   0.0416667
        k(   58) = (   0.0833333   0.4166667   0.2500000), wk =   0.0416667
        k(   59) = (   0.0833333   0.4166667   0.3750000), wk =   0.0416667
        k(   60) = (   0.0833333   0.4166667  -0.5000000), wk =   0.0208333
        k(   61) = (   0.1666667   0.1666667   0.0000000), wk =   0.0104167
        k(   62) = (   0.1666667   0.1666667   0.1250000), wk =   0.0208333
        k(   63) = (   0.1666667   0.1666667   0.2500000), wk =   0.0208333
        k(   64) = (   0.1666667   0.1666667   0.3750000), wk =   0.0208333
        k(   65) = (   0.1666667   0.1666667  -0.5000000), wk =   0.0104167
        k(   66) = (   0.1666667   0.2500000   0.0000000), wk =   0.0208333
        k(   67) = (   0.1666667   0.2500000   0.1250000), wk =   0.0416667
        k(   68) = (   0.1666667   0.2500000   0.2500000), wk =   0.0416667
        k(   69) = (   0.1666667   0.2500000   0.3750000), wk =   0.0416667
        k(   70) = (   0.1666667   0.2500000  -0.5000000), wk =   0.0208333
        k(   71) = (   0.1666667   0.3333333   0.0000000), wk =   0.0208333
        k(   72) = (   0.1666667   0.3333333   0.1250000), wk =   0.0416667
        k(   73) = (   0.1666667   0.3333333   0.2500000), wk =   0.0416667
        k(   74) = (   0.1666667   0.3333333   0.3750000), wk =   0.0416667
        k(   75) = (   0.1666667   0.3333333  -0.5000000), wk =   0.0208333
        k(   76) = (   0.1666667   0.4166667   0.0000000), wk =   0.0104167
        k(   77) = (   0.1666667   0.4166667   0.1250000), wk =   0.0208333
        k(   78) = (   0.1666667   0.4166667   0.2500000), wk =   0.0208333
        k(   79) = (   0.1666667   0.4166667   0.3750000), wk =   0.0208333
        k(   80) = (   0.1666667   0.4166667  -0.5000000), wk =   0.0104167
        k(   81) = (   0.2500000   0.2500000   0.0000000), wk =   0.0104167
        k(   82) = (   0.2500000   0.2500000   0.1250000), wk =   0.0208333
        k(   83) = (   0.2500000   0.2500000   0.2500000), wk =   0.0208333
        k(   84) = (   0.2500000   0.2500000   0.3750000), wk =   0.0208333
        k(   85) = (   0.2500000   0.2500000  -0.5000000), wk =   0.0104167
        k(   86) = (   0.2500000   0.3333333   0.0000000), wk =   0.0208333
        k(   87) = (   0.2500000   0.3333333   0.1250000), wk =   0.0416667
        k(   88) = (   0.2500000   0.3333333   0.2500000), wk =   0.0416667
        k(   89) = (   0.2500000   0.3333333   0.3750000), wk =   0.0416667
        k(   90) = (   0.2500000   0.3333333  -0.5000000), wk =   0.0208333
        k(   91) = (   0.3333333   0.3333333   0.0000000), wk =   0.0034722
        k(   92) = (   0.3333333   0.3333333   0.1250000), wk =   0.0069444
        k(   93) = (   0.3333333   0.3333333   0.2500000), wk =   0.0069444
        k(   94) = (   0.3333333   0.3333333   0.3750000), wk =   0.0069444
        k(   95) = (   0.3333333   0.3333333  -0.5000000), wk =   0.0034722

     Dense  grid:     5359 G-vectors     FFT dimensions: (  20,  20,  32)

     Smooth grid:     1883 G-vectors     FFT dimensions: (  15,  15,  24)

     Dynamical RAM for                 wfc:       0.11 MB

     Dynamical RAM for     wfc (w. buffer):      10.85 MB

     Dynamical RAM for           str. fact:       0.16 MB

     Dynamical RAM for           local pot:       0.00 MB

     Dynamical RAM for          nlocal pot:       0.19 MB

     Dynamical RAM for                qrad:       1.61 MB

     Dynamical RAM for          rho,v,vnew:       0.54 MB

     Dynamical RAM for               rhoin:       0.18 MB

     Dynamical RAM for            rho*nmix:       1.31 MB

     Dynamical RAM for           G-vectors:       0.32 MB

     Dynamical RAM for          h,s,v(r/c):       0.18 MB

     Dynamical RAM for          <psi|beta>:       0.02 MB

     Dynamical RAM for                 psi:       0.23 MB

     Dynamical RAM for                hpsi:       0.23 MB

     Dynamical RAM for                spsi:       0.23 MB

     Dynamical RAM for      wfcinit/wfcrot:       0.27 MB

     Dynamical RAM for           addusdens:      15.37 MB

     Dynamical RAM for          addusforce:      15.59 MB

     Dynamical RAM for         addusstress:      16.44 MB

     Estimated static dynamical RAM per process >      14.59 MB

     Estimated max dynamical RAM per process >      32.33 MB

     Check: negative core charge=   -0.000361

     Initial potential from superposition of free atoms

     starting charge      51.9997, renormalised to      52.0000
     Starting wfcs are   34 randomized atomic wfcs
     Checking if some PAW data can be deallocated... 

     total cpu time spent up to now is       11.1 secs

     Self-consistent Calculation

     iteration #  1     ecut=    12.50 Ry     beta= 0.40
     Davidson diagonalization with overlap

---- Real-time Memory Report at c_bands before calling an iterative solver
            54 MiB given to the printing process from OS
             0 MiB allocation reported by mallinfo(arena+hblkhd)
          5104 MiB available memory on the node where the printing process lives
------------------
     ethr =  1.00E-02,  avg # of iterations =  3.9

     total cpu time spent up to now is       41.7 secs

     total energy              =    -918.16756566 Ry
     estimated scf accuracy    <      83.88481860 Ry

     iteration #  2     ecut=    12.50 Ry     beta= 0.40
     Davidson diagonalization with overlap

---- Real-time Memory Report at c_bands before calling an iterative solver
            66 MiB given to the printing process from OS
             0 MiB allocation reported by mallinfo(arena+hblkhd)
          5084 MiB available memory on the node where the printing process lives
------------------
     ethr =  1.00E-02,  avg # of iterations =  2.7

     total cpu time spent up to now is       74.7 secs

     total energy              =    -940.49839644 Ry
     estimated scf accuracy    <       4.52731846 Ry

     iteration #  3     ecut=    12.50 Ry     beta= 0.40
     Davidson diagonalization with overlap

---- Real-time Memory Report at c_bands before calling an iterative solver
            66 MiB given to the printing process from OS
             0 MiB allocation reported by mallinfo(arena+hblkhd)
          5083 MiB available memory on the node where the printing process lives
------------------
     ethr =  8.71E-03,  avg # of iterations =  2.0

     total cpu time spent up to now is       96.1 secs

     total energy              =    -940.64126385 Ry
     estimated scf accuracy    <       0.76351602 Ry

     iteration #  4     ecut=    12.50 Ry     beta= 0.40
     Davidson diagonalization with overlap

---- Real-time Memory Report at c_bands before calling an iterative solver
            66 MiB given to the printing process from OS
             0 MiB allocation reported by mallinfo(arena+hblkhd)
          5084 MiB available memory on the node where the printing process lives
------------------
     ethr =  1.47E-03,  avg # of iterations =  1.1

     total cpu time spent up to now is      116.7 secs

     total energy              =    -940.59683352 Ry
     estimated scf accuracy    <       0.14430315 Ry

     iteration #  5     ecut=    12.50 Ry     beta= 0.40
     Davidson diagonalization with overlap

---- Real-time Memory Report at c_bands before calling an iterative solver
            66 MiB given to the printing process from OS
             0 MiB allocation reported by mallinfo(arena+hblkhd)
          5082 MiB available memory on the node where the printing process lives
------------------
     ethr =  2.78E-04,  avg # of iterations =  2.2

     total cpu time spent up to now is      139.9 secs

     total energy              =    -940.60608403 Ry
     estimated scf accuracy    <       0.00216256 Ry

     iteration #  6     ecut=    12.50 Ry     beta= 0.40
     Davidson diagonalization with overlap

---- Real-time Memory Report at c_bands before calling an iterative solver
            66 MiB given to the printing process from OS
             0 MiB allocation reported by mallinfo(arena+hblkhd)
          5093 MiB available memory on the node where the printing process lives
------------------
     ethr =  4.16E-06,  avg # of iterations =  6.4

     total cpu time spent up to now is      167.9 secs

     total energy              =    -940.60645515 Ry
     estimated scf accuracy    <       0.00013076 Ry

     iteration #  7     ecut=    12.50 Ry     beta= 0.40
     Davidson diagonalization with overlap

---- Real-time Memory Report at c_bands before calling an iterative solver
            67 MiB given to the printing process from OS
             0 MiB allocation reported by mallinfo(arena+hblkhd)
          5097 MiB available memory on the node where the printing process lives
------------------
     ethr =  2.51E-07,  avg # of iterations =  2.1

     total cpu time spent up to now is      186.9 secs

     total energy              =    -940.60653681 Ry
     estimated scf accuracy    <       0.00002006 Ry

     iteration #  8     ecut=    12.50 Ry     beta= 0.40
     Davidson diagonalization with overlap

---- Real-time Memory Report at c_bands before calling an iterative solver
            67 MiB given to the printing process from OS
             0 MiB allocation reported by mallinfo(arena+hblkhd)
          5098 MiB available memory on the node where the printing process lives
------------------
     ethr =  3.86E-08,  avg # of iterations =  2.0

     total cpu time spent up to now is      208.2 secs

     total energy              =    -940.60656785 Ry
     estimated scf accuracy    <       0.00000006 Ry

     iteration #  9     ecut=    12.50 Ry     beta= 0.40
     Davidson diagonalization with overlap

---- Real-time Memory Report at c_bands before calling an iterative solver
            67 MiB given to the printing process from OS
             0 MiB allocation reported by mallinfo(arena+hblkhd)
          5096 MiB available memory on the node where the printing process lives
------------------
     ethr =  1.17E-10,  avg # of iterations =  2.0

     total cpu time spent up to now is      232.2 secs

     total energy              =    -940.60657840 Ry
     estimated scf accuracy    <       0.00000002 Ry

     iteration # 10     ecut=    12.50 Ry     beta= 0.40
     Davidson diagonalization with overlap

---- Real-time Memory Report at c_bands before calling an iterative solver
            67 MiB given to the printing process from OS
             0 MiB allocation reported by mallinfo(arena+hblkhd)
          5096 MiB available memory on the node where the printing process lives
------------------
     ethr =  3.95E-11,  avg # of iterations =  2.0

     total cpu time spent up to now is      268.3 secs

     End of self-consistent calculation

          k = 0.0000 0.0000 0.0000 (   245 PWs)   bands (ev):

  -163.1904-162.7861-103.5057-100.1359-100.1359 -99.8199 -97.4567 -97.4567
   -17.2727 -14.2343 -14.1158 -11.9692 -11.9692 -11.9559 -11.9559 -11.2687
   -11.2687  -9.4485  -7.2744  -7.2744   3.6878   8.6145   9.1555   9.2525
     9.2525  10.0926  10.0926  13.2639  19.5958  22.1696  22.1698

     occupation numbers 
     1.0000   1.0000   1.0000   1.0000   1.0000   1.0000   1.0000   1.0000
     1.0000   1.0000   1.0000   1.0000   1.0000   1.0000   1.0000   1.0000
     1.0000   1.0000   1.0000   1.0000   1.0000   1.0000   1.0000   1.0000
     1.0000   0.8663   0.8663   0.0000   0.0000   0.0000   0.0000

          k = 0.0000 0.0000 0.0775 (   239 PWs)   bands (ev):

  -162.3817-162.0119-102.2603 -98.6139 -98.6139 -96.8551 -96.8551 -96.0043
   -16.8199 -13.9884 -13.8885 -11.7571 -11.7571  -8.4737  -8.4737  -8.1405
    -8.1351  -8.1351  -4.4015  -4.4015   4.0327   8.0501   9.6994   9.6994
     9.8943  10.0836  10.0836  13.3542  20.2980  22.1859  22.1859

     occupation numbers 
     1.0000   1.0000   1.0000   1.0000   1.0000   1.0000   1.0000   1.0000
     1.0000   1.0000   1.0000   1.0000   1.0000   1.0000   1.0000   1.0000
     1.0000   1.0000   1.0000   1.0000   1.0000   1.0000   1.0000   1.0000
     1.0000   0.9622   0.9622   0.0000   0.0000   0.0000   0.0000

          k = 0.0000 0.0000 0.1550 (   233 PWs)   bands (ev):

  -161.5714-161.3564 -98.4750 -98.4750 -96.3700 -96.3700 -96.3236 -93.8056
   -14.0842 -13.8517 -11.4308 -11.4308  -8.3312  -8.3312  -6.1502  -5.9994
    -5.9994  -4.3220  -3.6595  -3.6595   4.7987   7.4595   9.7766   9.7766
    10.1339  10.1339  12.0717  13.4615  20.1042  21.7096  22.2350

     occupation numbers 
     1.0000   1.0000   1.0000   1.0000   1.0000   1.0000   1.0000   1.0000
     1.0000   1.0000   1.0000   1.0000   1.0000   1.0000   1.0000   1.0000
     1.0000   1.0000   1.0000   1.0000   1.0000   1.0000   1.0000   1.0000
     0.2901   0.2901   0.0000   0.0000   0.0000   0.0000   0.0000

          k = 0.0000 0.0000 0.2325 (   233 PWs)   bands (ev):

  -161.5192-161.3341 -98.3396 -98.3396 -96.4720 -96.1895 -96.1895 -93.7105
   -14.0202 -13.9005 -11.3508 -11.3508  -8.2568  -8.2568  -6.1101  -5.9862
    -5.9862  -4.2002  -3.6600  -3.6600   5.1630   6.7991   9.8935   9.8935
    10.0670  10.0670  12.7020  13.3561  19.9508  20.8718  22.3480

     occupation numbers 
     1.0000   1.0000   1.0000   1.0000   1.0000   1.0000   1.0000   1.0000
     1.0000   1.0000   1.0000   1.0000   1.0000   1.0000   1.0000   1.0000
     1.0000   1.0000   1.0000   1.0000   1.0000   1.0000   1.0000   1.0000
     1.0646   1.0646   0.0000   0.0000   0.0000   0.0000   0.0000

          k = 0.0000 0.0000-0.3100 (   252 PWs)   bands (ev):

  -163.7033-163.7033-101.4670-101.4670-101.4670-101.4670-100.8663-100.8663
   -17.9997 -17.9997 -17.9997 -17.9997 -14.2069 -14.2069 -10.2871 -10.2871
   -10.2871 -10.2871 -10.2077 -10.2077   4.9738   4.9738   9.3172   9.3172
     9.3172   9.3172  12.7922  12.7922  19.9418  19.9418  22.0321

     occupation numbers 
     1.0000   1.0000   1.0000   1.0000   1.0000   1.0000   1.0000   1.0000
     1.0000   1.0000   1.0000   1.0000   1.0000   1.0000   1.0000   1.0000
     1.0000   1.0000   1.0000   1.0000   1.0000   1.0000   1.0000   1.0000
     1.0000   1.0000   0.0000   0.0000   0.0000   0.0000   0.0000

          k = 0.0000 0.0962 0.0000 (   248 PWs)   bands (ev):

  -163.5692-163.0958-103.1353-101.9666-100.0723 -99.6615 -99.1321 -98.6023
   -19.1539 -17.0331 -14.1640 -13.9290 -12.1031 -11.8786 -11.6849 -11.2221
   -10.9360 -10.7840  -8.7855  -6.8283   3.8175   7.5351   8.3995   9.0853
     9.1193   9.6652  10.4944  13.8115  19.7628  21.3279  22.1257

     occupation numbers 
     1.0000   1.0000   1.0000   1.0000   1.0000   1.0000   1.0000   1.0000
     1.0000   1.0000   1.0000   1.0000   1.0000   1.0000   1.0000   1.0000
     1.0000   1.0000   1.0000   1.0000   1.0000   1.0000   1.0000   1.0000
     1.0000   1.0000   0.0000   0.0000   0.0000   0.0000   0.0000

          k = 0.0000 0.0962 0.0775 (   247 PWs)   bands (ev):

  -163.3737-162.9767-102.8718-102.3772 -99.6435 -99.2297 -99.0435 -97.7254
   -19.0520 -16.7984 -14.1280 -14.0645 -11.9625 -11.5626 -11.4716 -10.9070
   -10.4862 -10.1171  -7.6076  -6.8247   3.9572   7.3204   8.3591   9.1898
     9.3012   9.6563  10.7062  13.7875  19.7712  21.3283  22.1382

     occupation numbers 
     1.0000   1.0000   1.0000   1.0000   1.0000   1.0000   1.0000   1.0000
     1.0000   1.0000   1.0000   1.0000   1.0000   1.0000   1.0000   1.0000
     1.0000   1.0000   1.0000   1.0000   1.0000   1.0000   1.0000   1.0000
     1.0000   1.0000   0.0000   0.0000   0.0000   0.0000   0.0000

          k = 0.0000 0.0962 0.1550 (   245 PWs)   bands (ev):

  -163.3774-162.3980-101.8715-101.1426-100.1319 -99.8597 -98.7011 -95.9426
   -18.0799 -15.4587 -14.9713 -14.0145 -13.8902 -12.2770 -12.0009  -9.7071
    -8.8459  -7.7863  -5.4400  -5.3483   4.5029   6.5042   8.6417   9.3426
     9.3564   9.6620  11.6557  13.7580  19.6897  20.7294  21.8313

     occupation numbers 
     1.0000   1.0000   1.0000   1.0000   1.0000   1.0000   1.0000   1.0000
     1.0000   1.0000   1.0000   1.0000   1.0000   1.0000   1.0000   1.0000
     1.0000   1.0000   1.0000   1.0000   1.0000   1.0000   1.0000   1.0000
     1.0000   1.0000   0.0000   0.0000   0.0000   0.0000   0.0000

          k = 0.0000 0.0962 0.2325 (   239 PWs)   bands (ev):

  -162.5342-161.6983-100.4163 -99.9598 -99.1692 -98.7678 -97.0375 -93.1582
   -14.4740 -14.0542 -13.8001 -13.2284 -12.4061 -12.2686  -9.1653  -8.3482
    -7.0701  -6.1843  -4.2412  -2.2215   5.3195   6.1132   9.2061   9.3855
     9.5601   9.5858  13.0425  13.7554  19.6664  20.2372  22.0349

     occupation numbers 
     1.0000   1.0000   1.0000   1.0000   1.0000   1.0000   1.0000   1.0000
     1.0000   1.0000   1.0000   1.0000   1.0000   1.0000   1.0000   1.0000
     1.0000   1.0000   1.0000   1.0000   1.0000   1.0000   1.0000   1.0000
     1.0000   1.0000   0.0000   0.0000   0.0000   0.0000   0.0000

          k = 0.0000 0.0962-0.3100 (   242 PWs)   bands (ev):

  -162.5407-162.5407 -99.9390 -99.9390 -99.4003 -99.4003 -97.1040 -97.1040
   -14.2961 -14.2961 -13.2916 -13.2916 -12.7983 -12.7983 -11.3255 -11.3255
    -7.9305  -7.9305  -3.9571  -3.9571   5.3797   5.3797   9.2878   9.2878
     9.4530   9.4530  13.4057  13.4057  19.7198  19.7198  22.2457

     occupation numbers 
     1.0000   1.0000   1.0000   1.0000   1.0000   1.0000   1.0000   1.0000
     1.0000   1.0000   1.0000   1.0000   1.0000   1.0000   1.0000   1.0000
     1.0000   1.0000   1.0000   1.0000   1.0000   1.0000   1.0000   1.0000
     1.0000   1.0000   0.0000   0.0000   0.0000   0.0000   0.0000

          k = 0.0000 0.1925 0.0000 (   248 PWs)   bands (ev):

  -163.6372-162.8956-103.1911-102.7586-100.6588 -99.7260 -99.2113 -96.2983
   -19.1214 -16.1017 -15.4262 -14.6703 -13.9350 -13.7269 -12.5598 -11.7964
   -10.5303  -9.6229  -4.9567  -4.2191   4.2443   6.4216   7.4975   8.3343
     9.0572   9.5408  11.6513  15.0252  19.7744  20.3943  21.6775

     occupation numbers 
     1.0000   1.0000   1.0000   1.0000   1.0000   1.0000   1.0000   1.0000
     1.0000   1.0000   1.0000   1.0000   1.0000   1.0000   1.0000   1.0000
     1.0000   1.0000   1.0000   1.0000   1.0000   1.0000   1.0000   1.0000
     1.0000   1.0000   0.0000   0.0000   0.0000   0.0000   0.0000

          k = 0.0000 0.1925 0.0775 (   247 PWs)   bands (ev):

  -163.5704-162.7610-102.7258-100.9281-100.8602 -99.9768 -99.8140 -96.4537
   -18.0526 -15.6629 -14.3058 -14.0244 -13.9177 -13.2862 -12.5103 -10.9727
   -10.6054  -9.7439  -7.1830  -4.0753   4.3875   6.2823   7.6574   8.7393
     9.1495   9.4557  11.8605  14.9229  19.3625  20.1919  21.9031

     occupation numbers 
     1.0000   1.0000   1.0000   1.0000   1.0000   1.0000   1.0000   1.0000
     1.0000   1.0000   1.0000   1.0000   1.0000   1.0000   1.0000   1.0000
     1.0000   1.0000   1.0000   1.0000   1.0000   1.0000   1.0000   1.0000
     1.0000   1.0000   0.0000   0.0000   0.0000   0.0000   0.0000

          k = 0.0000 0.1925 0.1550 (   244 PWs)   bands (ev):

  -163.1580-162.4119-101.1479-100.5797-100.1309-100.1050 -99.5474 -94.8503
   -16.7309 -16.2614 -13.9344 -13.8568 -13.4399 -12.3245 -12.1500 -10.0986
    -8.2022  -8.0160  -4.6743  -4.5211   4.7458   6.0000   7.9523   9.0199
     9.2184   9.4693  12.5697  14.6992  19.1056  19.9770  21.6544

     occupation numbers 
     1.0000   1.0000   1.0000   1.0000   1.0000   1.0000   1.0000   1.0000
     1.0000   1.0000   1.0000   1.0000   1.0000   1.0000   1.0000   1.0000
     1.0000   1.0000   1.0000   1.0000   1.0000   1.0000   1.0000   1.0000
     1.0000   1.0000   0.0000   0.0000   0.0000   0.0000   0.0000

          k = 0.0000 0.1925 0.2325 (   244 PWs)   bands (ev):

  -162.9143-162.6982-101.6119-101.2894-100.8035 -99.9684 -96.6046 -96.1593
   -17.7921 -15.6605 -14.5171 -14.1737 -14.0090 -12.1281 -11.7377 -11.1581
    -8.1729  -5.7612  -5.4451  -3.2492   4.8078   5.5372   8.1836   8.9754
     9.2405   9.3730  13.4894  14.4603  18.7767  19.4746  21.8073

     occupation numbers 
     1.0000   1.0000   1.0000   1.0000   1.0000   1.0000   1.0000   1.0000
     1.0000   1.0000   1.0000   1.0000   1.0000   1.0000   1.0000   1.0000
     1.0000   1.0000   1.0000   1.0000   1.0000   1.0000   1.0000   1.0000
     1.0000   1.0000   0.0000   0.0000   0.0000   0.0000   0.0000

          k = 0.0000 0.1925-0.3100 (   244 PWs)   bands (ev):

  -162.8567-162.8567-100.7603-100.7603-100.1263-100.1263 -97.3839 -97.3839
   -16.1922 -16.1922 -14.0006 -14.0006 -12.7463 -12.7463 -11.7420 -11.7420
    -7.9928  -7.9928  -4.1630  -4.1630   5.0460   5.0460   8.6956   8.6956
     9.2398   9.2398  14.0177  14.0177  19.0477  19.0477  21.9748

     occupation numbers 
     1.0000   1.0000   1.0000   1.0000   1.0000   1.0000   1.0000   1.0000
     1.0000   1.0000   1.0000   1.0000   1.0000   1.0000   1.0000   1.0000
     1.0000   1.0000   1.0000   1.0000   1.0000   1.0000   1.0000   1.0000
     1.0000   1.0000   0.0000   0.0000   0.0000   0.0000   0.0000

          k = 0.0000 0.2887 0.0000 (   250 PWs)   bands (ev):

  -164.5742-162.6204-104.5834-103.8569-102.1334-100.1869 -98.1575 -96.2437
   -19.3150 -18.5352 -16.6712 -15.2728 -14.3593 -13.8226 -13.4418 -13.1525
   -10.3495  -9.1075  -4.5457  -3.5690   4.5992   5.1563   6.7965   8.0832
     8.4809   9.1810  12.4742  15.8959  18.7413  19.5673  21.1729

     occupation numbers 
     1.0000   1.0000   1.0000   1.0000   1.0000   1.0000   1.0000   1.0000
     1.0000   1.0000   1.0000   1.0000   1.0000   1.0000   1.0000   1.0000
     1.0000   1.0000   1.0000   1.0000   1.0000   1.0000   1.0000   1.0000
     1.0000   1.0000   0.0000   0.0000   0.0000   0.0000   0.0000

          k = 0.0000 0.2887 0.0775 (   249 PWs)   bands (ev):

  -164.3676-162.5277-104.0368-103.2731-102.0654-100.1217 -98.0218 -95.8720
   -19.1087 -17.5132 -16.4898 -14.5286 -14.3176 -13.6772 -13.4466 -13.1214
   -10.3184  -8.7857  -4.5180  -2.7638   4.6305   5.1077   6.9480   8.1219
     8.6352   9.1571  12.6300  15.9129  18.6050  19.4751  21.2923

     occupation numbers 
     1.0000   1.0000   1.0000   1.0000   1.0000   1.0000   1.0000   1.0000
     1.0000   1.0000   1.0000   1.0000   1.0000   1.0000   1.0000   1.0000
     1.0000   1.0000   1.0000   1.0000   1.0000   1.0000   1.0000   1.0000
     1.0000   1.0000   0.0000   0.0000   0.0000   0.0000   0.0000

          k = 0.0000 0.2887 0.1550 (   246 PWs)   bands (ev):

  -163.2597-162.8952-102.4357-101.9522 -99.4768 -99.3917 -98.2812 -97.6590
   -18.5857 -17.0413 -14.3928 -13.7855 -13.2057 -12.9562 -12.6925 -10.5369
    -8.7850  -7.9601  -6.5976  -2.7698   4.4197   5.3182   7.4346   8.1151
     9.1685   9.2843  13.1655  15.6380  18.1658  19.4739  21.2559

     occupation numbers 
     1.0000   1.0000   1.0000   1.0000   1.0000   1.0000   1.0000   1.0000
     1.0000   1.0000   1.0000   1.0000   1.0000   1.0000   1.0000   1.0000
     1.0000   1.0000   1.0000   1.0000   1.0000   1.0000   1.0000   1.0000
     1.0000   1.0000   0.0000   0.0000   0.0000   0.0000   0.0000

          k = 0.0000 0.2887 0.2325 (   242 PWs)   bands (ev):

  -162.6775-162.4721-101.2042-100.7259-100.0991 -99.0938 -96.4159 -95.7058
   -16.0574 -15.7466 -14.1045 -13.7252 -13.6645 -11.7410 -11.5299  -9.6723
    -8.4586  -5.0636  -4.3453  -2.0916   4.6290   5.1825   8.0360   8.3194
     9.2970   9.5781  14.0693  15.2227  18.2466  19.0766  21.5134

     occupation numbers 
     1.0000   1.0000   1.0000   1.0000   1.0000   1.0000   1.0000   1.0000
     1.0000   1.0000   1.0000   1.0000   1.0000   1.0000   1.0000   1.0000
     1.0000   1.0000   1.0000   1.0000   1.0000   1.0000   1.0000   1.0000
     1.0000   1.0000   0.0000   0.0000   0.0000   0.0000   0.0000

          k = 0.0000 0.2887-0.3100 (   236 PWs)   bands (ev):

  -161.8231-161.8231 -98.8970 -98.8970 -98.4565 -98.4565 -94.6315 -94.6315
   -14.2558 -14.2558 -13.1969 -13.1969 -10.2397 -10.2397  -9.5466  -9.5466
    -3.8142  -3.8142  -1.2568  -1.2568   5.1545   5.1545   8.7504   8.7504
     9.2195   9.2195  14.7758  14.7758  18.7564  18.7564  21.7933

     occupation numbers 
     1.0000   1.0000   1.0000   1.0000   1.0000   1.0000   1.0000   1.0000
     1.0000   1.0000   1.0000   1.0000   1.0000   1.0000   1.0000   1.0000
     1.0000   1.0000   1.0000   1.0000   1.0000   1.0000   1.0000   1.0000
     1.0000   1.0000   0.0000   0.0000   0.0000   0.0000   0.0000

          k = 0.0000 0.3849 0.0000 (   244 PWs)   bands (ev):

  -163.6606-162.0590-102.7082-102.0608-101.1961 -99.8811 -95.5800 -95.0584
   -17.3464 -16.5948 -14.2746 -14.2062 -13.8731 -13.3890 -11.0194 -10.1666
    -9.2969  -5.1059  -4.6146  -1.5925   4.6257   4.9995   6.6648   7.9087
     8.5229   9.0755  13.5667  16.2379  18.1192  19.4451  21.3960

     occupation numbers 
     1.0000   1.0000   1.0000   1.0000   1.0000   1.0000   1.0000   1.0000
     1.0000   1.0000   1.0000   1.0000   1.0000   1.0000   1.0000   1.0000
     1.0000   1.0000   1.0000   1.0000   1.0000   1.0000   1.0000   1.0000
     1.0000   1.0000   0.0000   0.0000   0.0000   0.0000   0.0000

          k = 0.0000 0.3849 0.0775 (   241 PWs)   bands (ev):

  -162.8186-162.0920-102.3673-101.9628 -99.3948 -98.7358 -94.8794 -94.5229
   -17.5001 -16.2302 -13.8899 -13.4440 -13.4230 -10.2968  -9.6368  -9.0836
    -7.5160  -5.0009  -3.0722  -1.7937   4.7102   5.1335   6.9490   7.9653
     8.6750   9.1214  13.6667  16.3176  18.1039  19.3911  21.3651

     occupation numbers 
     1.0000   1.0000   1.0000   1.0000   1.0000   1.0000   1.0000   1.0000
     1.0000   1.0000   1.0000   1.0000   1.0000   1.0000   1.0000   1.0000
     1.0000   1.0000   1.0000   1.0000   1.0000   1.0000   1.0000   1.0000
     1.0000   1.0000   0.0000   0.0000   0.0000   0.0000   0.0000

          k = 0.0000 0.3849 0.1550 (   241 PWs)   bands (ev):

  -162.8770-162.0416-102.6050-100.8812 -98.6247 -98.2899 -97.1356 -94.2337
   -17.4641 -15.7911 -13.7570 -13.6279 -12.6030 -11.1438  -9.8241  -7.9443
    -6.8179  -5.3189  -4.0221  -3.2068   4.3596   5.1478   7.4118   8.0571
     8.7395   9.2965  13.7668  16.0382  17.9110  19.3165  21.0520

     occupation numbers 
     1.0000   1.0000   1.0000   1.0000   1.0000   1.0000   1.0000   1.0000
     1.0000   1.0000   1.0000   1.0000   1.0000   1.0000   1.0000   1.0000
     1.0000   1.0000   1.0000   1.0000   1.0000   1.0000   1.0000   1.0000
     1.0000   1.0000   0.0000   0.0000   0.0000   0.0000   0.0000

          k = 0.0000 0.3849 0.2325 (   239 PWs)   bands (ev):

  -163.0593-161.3288-101.2426-101.2220-100.1618 -97.2125 -95.0346 -93.5287
   -18.6760 -15.4304 -13.8906 -13.5883 -11.9542 -10.4778 -10.0448  -8.0102
    -5.2212  -2.9448  -2.8701  -0.2580   4.5538   4.8819   8.0480   8.2957
     8.8157   9.2279  14.2705  15.6330  18.1256  19.1368  21.2155

     occupation numbers 
     1.0000   1.0000   1.0000   1.0000   1.0000   1.0000   1.0000   1.0000
     1.0000   1.0000   1.0000   1.0000   1.0000   1.0000   1.0000   1.0000
     1.0000   1.0000   1.0000   1.0000   1.0000   1.0000   1.0000   1.0000
     1.0000   1.0000   0.0000   0.0000   0.0000   0.0000   0.0000

          k = 0.0000 0.3849-0.3100 (   236 PWs)   bands (ev):

  -161.8242-161.8242-100.2197-100.2197 -97.0282 -97.0282 -94.5811 -94.5811
   -15.4341 -15.4341 -13.5697 -13.5697  -9.3116  -9.3116  -8.2540  -8.2540
    -3.3028  -3.3028  -1.5559  -1.5559   4.7014   4.7014   8.5736   8.5736
     8.7698   8.7698  15.0207  15.0207  18.6860  18.6860  21.6327

     occupation numbers 
     1.0000   1.0000   1.0000   1.0000   1.0000   1.0000   1.0000   1.0000
     1.0000   1.0000   1.0000   1.0000   1.0000   1.0000   1.0000   1.0000
     1.0000   1.0000   1.0000   1.0000   1.0000   1.0000   1.0000   1.0000
     1.0000   1.0000   0.0000   0.0000   0.0000   0.0000   0.0000

          k = 0.0000 0.4811 0.0000 (   234 PWs)   bands (ev):

  -161.7530-161.5515-101.7991 -99.6543 -97.4098 -95.3744 -93.8725 -93.4096
   -16.4426 -13.9741 -13.2959 -12.8517 -10.9540  -8.7806  -8.4662  -5.9067
    -3.7715  -1.5549  -0.1537   1.1669   4.8407   5.3558   6.9090   7.8659
     8.4757   9.1660  14.5885  15.9941  17.6761  19.3441  21.6299

     occupation numbers 
     1.0000   1.0000   1.0000   1.0000   1.0000   1.0000   1.0000   1.0000
     1.0000   1.0000   1.0000   1.0000   1.0000   1.0000   1.0000   1.0000
     1.0000   1.0000   1.0000   1.0000   1.0000   1.0000   1.0000   1.0000
     1.0000   1.0000   0.0000   0.0000   0.0000   0.0000   0.0000

          k = 0.0000 0.4811 0.0775 (   235 PWs)   bands (ev):

  -162.0076-161.5904-101.3412 -99.9336 -97.2639 -97.1234 -94.0721 -93.5014
   -17.0876 -15.1235 -13.7263 -13.2389 -12.5014  -7.3546  -6.8233  -5.1825
    -4.4117  -3.4201  -0.8421   0.8850   4.6431   5.1969   7.1497   7.9839
     8.5127   9.4458  14.3900  16.0298  17.8541  19.1159  21.5431

     occupation numbers 
     1.0000   1.0000   1.0000   1.0000   1.0000   1.0000   1.0000   1.0000
     1.0000   1.0000   1.0000   1.0000   1.0000   1.0000   1.0000   1.0000
     1.0000   1.0000   1.0000   1.0000   1.0000   1.0000   1.0000   1.0000
     1.0000   1.0000   0.0000   0.0000   0.0000   0.0000   0.0000

          k = 0.0000 0.4811 0.1550 (   238 PWs)   bands (ev):

  -162.4555-161.9050-101.4461-100.2247 -99.1975 -97.7692 -94.7627 -94.3806
   -18.7668 -16.0327 -13.9079 -13.4101 -13.0162  -8.2663  -8.1151  -6.4505
    -5.1830  -3.6576  -1.8574  -0.8633   4.4733   4.9435   7.5114   8.0345
     8.5522   8.9296  14.0587  15.8876  18.0660  18.8805  21.4177

     occupation numbers 
     1.0000   1.0000   1.0000   1.0000   1.0000   1.0000   1.0000   1.0000
     1.0000   1.0000   1.0000   1.0000   1.0000   1.0000   1.0000   1.0000
     1.0000   1.0000   1.0000   1.0000   1.0000   1.0000   1.0000   1.0000
     1.0000   1.0000   0.0000   0.0000   0.0000   0.0000   0.0000

          k = 0.0000 0.4811 0.2325 (   242 PWs)   bands (ev):

  -163.0795-162.1342-102.3778-101.2085-100.2985-100.1447 -96.1371 -93.3255
   -19.5178 -18.1851 -15.2834 -13.7631 -13.5877  -9.8839  -9.8423  -8.1298
    -7.5706  -4.5909  -1.7561  -1.7296   4.3156   4.6583   7.9623   8.0447
     8.4749   9.0378  14.2693  15.3249  18.2983  18.9238  21.1437

     occupation numbers 
     1.0000   1.0000   1.0000   1.0000   1.0000   1.0000   1.0000   1.0000
     1.0000   1.0000   1.0000   1.0000   1.0000   1.0000   1.0000   1.0000
     1.0000   1.0000   1.0000   1.0000   1.0000   1.0000   1.0000   1.0000
     1.0000   1.0000   0.0000   0.0000   0.0000   0.0000   0.0000

          k = 0.0000 0.4811-0.3100 (   232 PWs)   bands (ev):

  -161.3795-161.3795 -99.2971 -99.2971 -97.6683 -97.6683 -92.1264 -92.1264
   -17.5872 -17.5872 -13.4361 -13.4361  -7.9726  -7.9726  -6.9056  -6.9056
    -0.3372  -0.3372   2.9584   2.9584   4.6786   4.6786   8.4956   8.4956
     9.2300   9.2300  14.9262  14.9262  18.8285  18.8285  21.4734

     occupation numbers 
     1.0000   1.0000   1.0000   1.0000   1.0000   1.0000   1.0000   1.0000
     1.0000   1.0000   1.0000   1.0000   1.0000   1.0000   1.0000   1.0000
     1.0000   1.0000   1.0000   1.0000   1.0000   1.0000   1.0000   1.0000
     1.0000   1.0000   0.0000   0.0000   0.0000   0.0000   0.0000

          k = 0.0000-0.5774 0.0000 (   226 PWs)   bands (ev):

  -160.8842-160.6075 -97.5758 -96.5921 -95.4901 -94.0087 -93.3803 -92.1876
   -14.7431 -13.6855 -12.9960  -9.3875  -7.5316  -5.5135  -3.2975  -2.1036
    -0.1411   0.3720   1.8302   2.4915   4.8921   5.5231   7.2715   8.0969
     8.6475   9.9244  14.8271  15.9873  17.5232  19.1727  21.6205

     occupation numbers 
     1.0000   1.0000   1.0000   1.0000   1.0000   1.0000   1.0000   1.0000
     1.0000   1.0000   1.0000   1.0000   1.0000   1.0000   1.0000   1.0000
     1.0000   1.0000   1.0000   1.0000   1.0000   1.0000   1.0000   1.0000
     1.0000   1.0000   0.0000   0.0000   0.0000   0.0000   0.0000

          k = 0.0000-0.5774 0.0775 (   232 PWs)   bands (ev):

  -161.5106-161.4061 -99.2408 -99.1734 -98.3478 -97.0641 -92.8586 -92.1201
   -16.8177 -14.0263 -13.3289 -12.5823 -12.1827  -4.9231  -4.7292  -4.3289
    -2.4772  -1.8186  -0.6175   0.3160   4.8201   5.3051   7.2931   7.8774
     8.4526   9.0827  14.6124  15.8719  17.8635  19.0720  21.6690

     occupation numbers 
     1.0000   1.0000   1.0000   1.0000   1.0000   1.0000   1.0000   1.0000
     1.0000   1.0000   1.0000   1.0000   1.0000   1.0000   1.0000   1.0000
     1.0000   1.0000   1.0000   1.0000   1.0000   1.0000   1.0000   1.0000
     1.0000   1.0000   0.0000   0.0000   0.0000   0.0000   0.0000

          k = 0.0000-0.5774 0.1550 (   238 PWs)   bands (ev):

  -162.6046-161.7261-102.8222 -99.6533 -99.2091 -98.9907 -93.9710 -93.3274
   -19.5670 -17.3479 -13.7184 -13.5095 -13.4635  -9.7830  -6.5379  -5.0614
    -4.4786  -3.5840  -1.5708  -0.2452   4.5096   4.8977   7.5942   7.9982
     8.2993   8.8769  14.2070  15.7636  18.4567  18.4736  21.5947

     occupation numbers 
     1.0000   1.0000   1.0000   1.0000   1.0000   1.0000   1.0000   1.0000
     1.0000   1.0000   1.0000   1.0000   1.0000   1.0000   1.0000   1.0000
     1.0000   1.0000   1.0000   1.0000   1.0000   1.0000   1.0000   1.0000
     1.0000   1.0000   0.0000   0.0000   0.0000   0.0000   0.0000

          k = 0.0000-0.5774 0.2325 (   238 PWs)   bands (ev):

  -162.6807-161.6650-101.7134-101.0674 -98.9976 -98.9275 -94.0069 -93.1848
   -19.5611 -17.7692 -15.2949 -13.6035 -13.5163  -9.8214  -6.5984  -5.0246
    -3.5849  -2.2214  -1.5778  -0.1762   4.4462   4.7248   8.0968   8.2003
     8.4885   9.0564  14.2238  15.4432  18.3948  18.9402  21.5465

     occupation numbers 
     1.0000   1.0000   1.0000   1.0000   1.0000   1.0000   1.0000   1.0000
     1.0000   1.0000   1.0000   1.0000   1.0000   1.0000   1.0000   1.0000
     1.0000   1.0000   1.0000   1.0000   1.0000   1.0000   1.0000   1.0000
     1.0000   1.0000   0.0000   0.0000   0.0000   0.0000   0.0000

          k = 0.0000-0.5774-0.3100 (   236 PWs)   bands (ev):

  -161.9212-161.9212-100.3498-100.3498 -98.6315 -98.6315 -93.5196 -93.5196
   -18.2216 -18.2216 -13.5042 -13.5042  -9.4661  -9.4661  -8.6869  -8.6869
    -3.9908  -3.9908   2.8412   2.8412   4.5507   4.5507   8.2523   8.2523
     9.1230   9.1230  14.6682  14.6682  18.7908  18.7908  21.2024

     occupation numbers 
     1.0000   1.0000   1.0000   1.0000   1.0000   1.0000   1.0000   1.0000
     1.0000   1.0000   1.0000   1.0000   1.0000   1.0000   1.0000   1.0000
     1.0000   1.0000   1.0000   1.0000   1.0000   1.0000   1.0000   1.0000
     1.0000   1.0000   0.0000   0.0000   0.0000   0.0000   0.0000

          k = 0.0833 0.1443 0.0000 (   247 PWs)   bands (ev):

  -163.4349-162.9020-103.6053-101.2681-100.5604 -99.8787 -97.9698 -97.4571
   -18.7451 -16.7966 -15.2715 -14.1465 -13.9778 -11.5789 -11.5354 -10.5614
    -9.8846  -9.0986  -8.4775  -4.0299   4.1658   6.7703   7.6427   8.7033
     9.0278   9.7874  11.3426  14.7880  19.8058  20.4322  22.1710

     occupation numbers 
     1.0000   1.0000   1.0000   1.0000   1.0000   1.0000   1.0000   1.0000
     1.0000   1.0000   1.0000   1.0000   1.0000   1.0000   1.0000   1.0000
     1.0000   1.0000   1.0000   1.0000   1.0000   1.0000   1.0000   1.0000
     1.0000   1.0000   0.0000   0.0000   0.0000   0.0000   0.0000

          k = 0.0833 0.1443 0.0775 (   247 PWs)   bands (ev):

  -163.2005-163.0652-103.0061-102.5746-100.3738-100.1629 -97.7757 -96.8004
   -18.6352 -17.8710 -14.1989 -14.1792 -13.1741 -12.9392 -11.4448 -10.6199
    -9.9519  -9.0992  -6.2602  -5.9990   4.1717   6.7119   7.6507   8.9288
     9.1753   9.7694  11.4444  14.5258  19.5705  20.4693  22.2573

     occupation numbers 
     1.0000   1.0000   1.0000   1.0000   1.0000   1.0000   1.0000   1.0000
     1.0000   1.0000   1.0000   1.0000   1.0000   1.0000   1.0000   1.0000
     1.0000   1.0000   1.0000   1.0000   1.0000   1.0000   1.0000   1.0000
     1.0000   1.0000   0.0000   0.0000   0.0000   0.0000   0.0000

          k = 0.0833 0.1443 0.1550 (   243 PWs)   bands (ev):

  -162.7888-162.5284-102.2130-100.5089 -99.9837 -99.1695 -98.0644 -94.8836
   -16.8465 -15.6214 -14.0644 -13.8630 -13.0451 -12.7696  -9.9247  -9.1231
    -8.8319  -7.5011  -4.9843  -4.4586   4.7035   6.2541   8.0399   8.9876
     9.4604   9.7971  12.5300  14.4869  19.2215  20.2644  21.7698

     occupation numbers 
     1.0000   1.0000   1.0000   1.0000   1.0000   1.0000   1.0000   1.0000
     1.0000   1.0000   1.0000   1.0000   1.0000   1.0000   1.0000   1.0000
     1.0000   1.0000   1.0000   1.0000   1.0000   1.0000   1.0000   1.0000
     1.0000   1.0000   0.0000   0.0000   0.0000   0.0000   0.0000

          k = 0.0833 0.1443 0.2325 (   239 PWs)   bands (ev):

  -162.3191-162.0274-101.1843 -99.6966 -98.9629 -98.1706 -96.6516 -94.2510
   -15.8003 -14.4278 -14.0814 -13.8436 -12.7947 -11.2925  -9.0353  -8.5346
    -7.6429  -4.9940  -2.5450  -1.6487   5.0738   5.8486   8.4108   9.1622
     9.6290   9.6542  13.5018  14.3169  19.1085  19.7477  21.8941

     occupation numbers 
     1.0000   1.0000   1.0000   1.0000   1.0000   1.0000   1.0000   1.0000
     1.0000   1.0000   1.0000   1.0000   1.0000   1.0000   1.0000   1.0000
     1.0000   1.0000   1.0000   1.0000   1.0000   1.0000   1.0000   1.0000
     1.0000   1.0000   0.0000   0.0000   0.0000   0.0000   0.0000

          k = 0.0833 0.1443-0.3100 (   238 PWs)   bands (ev):

  -162.1085-162.1085 -99.4588 -99.4588 -98.1972 -98.1972 -96.1358 -96.1358
   -14.2003 -14.2003 -12.9019 -12.9019 -11.8176 -11.8176  -9.5285  -9.5285
    -5.6955  -5.6955  -2.5182  -2.5182   5.3982   5.3982   8.9718   8.9718
     9.5795   9.5795  13.9605  13.9605  19.2979  19.2979  22.0476

     occupation numbers 
     1.0000   1.0000   1.0000   1.0000   1.0000   1.0000   1.0000   1.0000
     1.0000   1.0000   1.0000   1.0000   1.0000   1.0000   1.0000   1.0000
     1.0000   1.0000   1.0000   1.0000   1.0000   1.0000   1.0000   1.0000
     1.0000   1.0000   0.0000   0.0000   0.0000   0.0000   0.0000

          k = 0.0833 0.2406 0.0000 (   248 PWs)   bands (ev):

  -163.9248-162.7504-104.0390-101.3376-100.6023 -99.9425 -98.8750 -97.4362
   -19.0362 -16.9874 -15.1163 -14.2307 -13.8537 -12.7629 -12.4868 -12.1515
    -9.7894  -8.8300  -8.0973  -3.6308   4.4068   5.8200   7.1345   8.3959
     8.8826   9.3989  12.3753  15.7746  19.1991  19.7021  21.2819

     occupation numbers 
     1.0000   1.0000   1.0000   1.0000   1.0000   1.0000   1.0000   1.0000
     1.0000   1.0000   1.0000   1.0000   1.0000   1.0000   1.0000   1.0000
     1.0000   1.0000   1.0000   1.0000   1.0000   1.0000   1.0000   1.0000
     1.0000   1.0000   0.0000   0.0000   0.0000   0.0000   0.0000

          k = 0.0833 0.2406 0.0775 (   245 PWs)   bands (ev):

  -163.8465-162.0900-102.6059-101.6494-100.5496 -99.3226 -97.9619 -95.5983
   -18.7928 -15.9807 -14.5707 -13.9416 -13.8070 -13.1521 -12.7673 -10.6802
    -8.8513  -6.6582  -4.4166  -2.3316   4.6197   5.5572   7.3107   8.5694
     9.0436   9.4494  12.5504  15.8724  19.0282  19.6004  21.5013

     occupation numbers 
     1.0000   1.0000   1.0000   1.0000   1.0000   1.0000   1.0000   1.0000
     1.0000   1.0000   1.0000   1.0000   1.0000   1.0000   1.0000   1.0000
     1.0000   1.0000   1.0000   1.0000   1.0000   1.0000   1.0000   1.0000
     1.0000   1.0000   0.0000   0.0000   0.0000   0.0000   0.0000

          k = 0.0833 0.2406 0.1550 (   242 PWs)   bands (ev):

  -162.9744-162.2222-100.9102 -99.9262 -99.5187 -99.1616 -98.0172 -95.8342
   -17.1891 -16.0755 -14.3415 -13.8675 -13.4562 -11.6463 -10.7508  -9.0084
    -6.2826  -5.6082  -5.2524  -2.3128   4.6116   5.4853   7.6415   8.7334
     9.3144   9.5179  13.0948  15.6027  18.5964  19.5357  21.5280

     occupation numbers 
     1.0000   1.0000   1.0000   1.0000   1.0000   1.0000   1.0000   1.0000
     1.0000   1.0000   1.0000   1.0000   1.0000   1.0000   1.0000   1.0000
     1.0000   1.0000   1.0000   1.0000   1.0000   1.0000   1.0000   1.0000
     1.0000   1.0000   0.0000   0.0000   0.0000   0.0000   0.0000

          k = 0.0833 0.2406 0.2325 (   242 PWs)   bands (ev):

  -162.8709-162.2844-101.8381-100.5651 -99.6496 -99.2123 -96.6539 -95.5038
   -17.2912 -16.1242 -14.4631 -13.8638 -13.6472 -11.7753 -10.8433 -10.0813
    -6.2725  -5.0116  -4.1020  -2.5483   4.7583   5.2133   8.0874   8.7001
     8.9441   9.5268  13.8883  15.1119  18.4386  19.0845  21.6326

     occupation numbers 
     1.0000   1.0000   1.0000   1.0000   1.0000   1.0000   1.0000   1.0000
     1.0000   1.0000   1.0000   1.0000   1.0000   1.0000   1.0000   1.0000
     1.0000   1.0000   1.0000   1.0000   1.0000   1.0000   1.0000   1.0000
     1.0000   1.0000   0.0000   0.0000   0.0000   0.0000   0.0000

          k = 0.0833 0.2406-0.3100 (   244 PWs)   bands (ev):

  -162.8412-162.8412-101.2423-101.2423-100.4981-100.4981 -96.4967 -96.4967
   -16.1873 -16.1873 -14.8604 -14.8604 -13.8061 -13.8061 -11.9996 -11.9996
    -6.3448  -6.3448  -2.9670  -2.9670   4.9153   4.9153   8.4881   8.4881
     8.7778   8.7778  14.4447  14.4447  18.6461  18.6461  21.7223

     occupation numbers 
     1.0000   1.0000   1.0000   1.0000   1.0000   1.0000   1.0000   1.0000
     1.0000   1.0000   1.0000   1.0000   1.0000   1.0000   1.0000   1.0000
     1.0000   1.0000   1.0000   1.0000   1.0000   1.0000   1.0000   1.0000
     1.0000   1.0000   0.0000   0.0000   0.0000   0.0000   0.0000

          k = 0.0833 0.3368 0.0000 (   246 PWs)   bands (ev):

  -164.0470-162.1065-104.3017-102.4804-100.3910 -99.5026 -96.3998 -95.8960
   -18.3048 -18.0800 -16.0160 -13.9744 -13.4330 -13.1022 -12.0122 -10.4022
    -8.7110  -7.3208  -3.8402  -3.0128   4.6806   5.0713   6.7240   7.9603
     8.4123   9.2530  13.2454  16.5442  18.4292  19.2883  21.0195

     occupation numbers 
     1.0000   1.0000   1.0000   1.0000   1.0000   1.0000   1.0000   1.0000
     1.0000   1.0000   1.0000   1.0000   1.0000   1.0000   1.0000   1.0000
     1.0000   1.0000   1.0000   1.0000   1.0000   1.0000   1.0000   1.0000
     1.0000   1.0000   0.0000   0.0000   0.0000   0.0000   0.0000

          k = 0.0833 0.3368 0.0775 (   245 PWs)   bands (ev):

  -163.8812-162.0908-102.9514-101.4177-100.8373-100.2686 -96.6385 -95.6677
   -19.2751 -17.3224 -14.3069 -14.0880 -13.5096 -13.1214 -11.9123 -11.1722
    -7.7200  -6.5865  -4.1478  -1.4680   4.6933   4.9280   6.9759   8.0295
     8.6382   8.9997  13.3680  16.5344  18.2691  19.2666  21.0185

     occupation numbers 
     1.0000   1.0000   1.0000   1.0000   1.0000   1.0000   1.0000   1.0000
     1.0000   1.0000   1.0000   1.0000   1.0000   1.0000   1.0000   1.0000
     1.0000   1.0000   1.0000   1.0000   1.0000   1.0000   1.0000   1.0000
     1.0000   1.0000   0.0000   0.0000   0.0000   0.0000   0.0000

          k = 0.0833 0.3368 0.1550 (   244 PWs)   bands (ev):

  -163.3494-162.3638-102.9346-100.9558 -99.8606 -98.5322 -97.7831 -96.2446
   -18.6868 -16.6199 -14.8179 -13.7798 -13.5710 -12.3050 -10.6329  -9.4056
    -8.2121  -7.6377  -3.8911  -2.0039   4.5466   4.9930   7.3753   8.2010
     8.7335   8.9118  13.6447  16.3119  18.0209  19.1833  21.0043

     occupation numbers 
     1.0000   1.0000   1.0000   1.0000   1.0000   1.0000   1.0000   1.0000
     1.0000   1.0000   1.0000   1.0000   1.0000   1.0000   1.0000   1.0000
     1.0000   1.0000   1.0000   1.0000   1.0000   1.0000   1.0000   1.0000
     1.0000   1.0000   0.0000   0.0000   0.0000   0.0000   0.0000

          k = 0.0833 0.3368 0.2325 (   240 PWs)   bands (ev):

  -162.7353-161.9812-100.8414-100.1820 -99.3788 -97.6846 -96.6578 -95.5830
   -16.0435 -15.2802 -13.9433 -13.6934 -12.6926 -10.4194 -10.2471  -9.3961
    -6.3661  -5.1590  -4.1716  -1.2568   4.5518   4.9554   8.0633   8.3599
     8.7786   9.5149  14.3179  15.7715  18.2165  19.0705  21.1581

     occupation numbers 
     1.0000   1.0000   1.0000   1.0000   1.0000   1.0000   1.0000   1.0000
     1.0000   1.0000   1.0000   1.0000   1.0000   1.0000   1.0000   1.0000
     1.0000   1.0000   1.0000   1.0000   1.0000   1.0000   1.0000   1.0000
     1.0000   1.0000   0.0000   0.0000   0.0000   0.0000   0.0000

          k = 0.0833 0.3368-0.3100 (   240 PWs)   bands (ev):

  -162.3852-162.3852-100.0728-100.0728 -98.0826 -98.0826 -97.0231 -97.0231
   -15.2519 -15.2519 -13.9332 -13.9332 -11.7668 -11.7668 -10.1767 -10.1767
    -5.3980  -5.3980  -2.6496  -2.6496   4.6866   4.6866   8.4702   8.4702
     8.7937   8.7937  15.0185  15.0185  18.5286  18.5286  21.4568

     occupation numbers 
     1.0000   1.0000   1.0000   1.0000   1.0000   1.0000   1.0000   1.0000
     1.0000   1.0000   1.0000   1.0000   1.0000   1.0000   1.0000   1.0000
     1.0000   1.0000   1.0000   1.0000   1.0000   1.0000   1.0000   1.0000
     1.0000   1.0000   0.0000   0.0000   0.0000   0.0000   0.0000

          k = 0.0833 0.4330 0.0000 (   237 PWs)   bands (ev):

  -162.9144-161.1243-101.4594-100.6490 -99.6444 -96.7119 -95.1184 -92.2221
   -17.5098 -14.9175 -13.6992 -13.4543 -12.0340 -10.9399 -10.4692  -4.7756
    -3.8093  -3.1913  -0.8327   0.0761   4.8704   5.4048   6.8287   7.7237
     8.4118   9.0007  14.4962  16.4818  17.8669  19.3495  21.3273

     occupation numbers 
     1.0000   1.0000   1.0000   1.0000   1.0000   1.0000   1.0000   1.0000
     1.0000   1.0000   1.0000   1.0000   1.0000   1.0000   1.0000   1.0000
     1.0000   1.0000   1.0000   1.0000   1.0000   1.0000   1.0000   1.0000
     1.0000   1.0000   0.0000   0.0000   0.0000   0.0000   0.0000

          k = 0.0833 0.4330 0.0775 (   237 PWs)   bands (ev):

  -162.5657-161.4435-102.3442 -99.9630 -99.3538 -96.3389 -95.2960 -92.6068
   -18.3810 -14.9979 -14.8059 -13.6411 -13.1386  -9.0998  -7.8553  -4.5194
    -3.9860  -3.2744  -2.3086   0.5102   4.8511   5.2762   7.0817   7.8274
     8.4669   9.0975  14.4512  16.5395  17.8855  19.2391  21.3304

     occupation numbers 
     1.0000   1.0000   1.0000   1.0000   1.0000   1.0000   1.0000   1.0000
     1.0000   1.0000   1.0000   1.0000   1.0000   1.0000   1.0000   1.0000
     1.0000   1.0000   1.0000   1.0000   1.0000   1.0000   1.0000   1.0000
     1.0000   1.0000   0.0000   0.0000   0.0000   0.0000   0.0000

          k = 0.0833 0.4330 0.1550 (   239 PWs)   bands (ev):

  -162.5495-161.9036-101.9639-101.0078 -99.6998 -97.8892 -95.6015 -92.8632
   -18.6346 -16.1403 -14.0909 -13.6230 -13.4185  -9.8638  -8.9749  -6.1376
    -5.0368  -4.4890  -2.4110  -0.5013   4.7230   5.0292   7.4785   7.8770
     8.6121   8.7962  14.2771  16.3813  17.9248  19.2823  21.1294

     occupation numbers 
     1.0000   1.0000   1.0000   1.0000   1.0000   1.0000   1.0000   1.0000
     1.0000   1.0000   1.0000   1.0000   1.0000   1.0000   1.0000   1.0000
     1.0000   1.0000   1.0000   1.0000   1.0000   1.0000   1.0000   1.0000
     1.0000   1.0000   0.0000   0.0000   0.0000   0.0000   0.0000

          k = 0.0833 0.4330 0.2325 (   234 PWs)   bands (ev):

  -161.7008-161.5337-100.2684 -99.3039 -98.3574 -96.7296 -93.3392 -93.0480
   -17.8267 -14.9496 -13.5171 -13.2259  -9.6375  -7.9072  -7.2953  -5.1434
    -4.2105  -1.9176  -0.6528   1.3246   4.6937   4.8479   7.9974   8.4703
     8.6914   9.2675  14.6775  15.8984  18.4084  19.2153  21.1577

     occupation numbers 
     1.0000   1.0000   1.0000   1.0000   1.0000   1.0000   1.0000   1.0000
     1.0000   1.0000   1.0000   1.0000   1.0000   1.0000   1.0000   1.0000
     1.0000   1.0000   1.0000   1.0000   1.0000   1.0000   1.0000   1.0000
     1.0000   1.0000   0.0000   0.0000   0.0000   0.0000   0.0000

          k = 0.0833 0.4330-0.3100 (   232 PWs)   bands (ev):

  -161.3610-161.3610 -98.7107 -98.7107 -97.2052 -97.2052 -93.0528 -93.0528
   -15.6006 -15.6006 -13.3847 -13.3847  -7.5901  -7.5901  -5.4102  -5.4102
    -2.1102  -2.1102   0.2365   0.2365   4.7153   4.7153   8.4242   8.4242
     9.0267   9.0267  15.2049  15.2049  18.9094  18.9094  21.2215

     occupation numbers 
     1.0000   1.0000   1.0000   1.0000   1.0000   1.0000   1.0000   1.0000
     1.0000   1.0000   1.0000   1.0000   1.0000   1.0000   1.0000   1.0000
     1.0000   1.0000   1.0000   1.0000   1.0000   1.0000   1.0000   1.0000
     1.0000   1.0000   0.0000   0.0000   0.0000   0.0000   0.0000

          k = 0.0833 0.5292 0.0000 (   231 PWs)   bands (ev):

  -161.6964-160.9644 -99.7252 -99.0871 -98.1988 -94.2452 -93.6466 -92.0489
   -16.0398 -13.9326 -13.1494 -12.4095 -10.0266  -7.4108  -5.5573  -4.0435
    -2.3190   0.1266   0.4956   0.9441   4.9421   5.3997   7.1606   7.7087
     8.3177   9.0494  15.0750  16.3129  17.5170  19.2985  21.5802

     occupation numbers 
     1.0000   1.0000   1.0000   1.0000   1.0000   1.0000   1.0000   1.0000
     1.0000   1.0000   1.0000   1.0000   1.0000   1.0000   1.0000   1.0000
     1.0000   1.0000   1.0000   1.0000   1.0000   1.0000   1.0000   1.0000
     1.0000   1.0000   0.0000   0.0000   0.0000   0.0000   0.0000

          k = 0.0833 0.5292 0.0775 (   236 PWs)   bands (ev):

  -162.1064-161.7598-101.2400 -99.6063 -99.2526 -97.6612 -94.0275 -93.0348
   -17.4394 -15.4968 -14.2106 -13.3319 -13.0863  -8.7239  -6.7462  -4.7658
    -3.7577  -3.3713  -1.4230   0.3598   4.7875   5.2328   7.1461   7.7663
     8.2928   8.8247  14.7011  16.2745  17.7805  18.9067  21.4911

     occupation numbers 
     1.0000   1.0000   1.0000   1.0000   1.0000   1.0000   1.0000   1.0000
     1.0000   1.0000   1.0000   1.0000   1.0000   1.0000   1.0000   1.0000
     1.0000   1.0000   1.0000   1.0000   1.0000   1.0000   1.0000   1.0000
     1.0000   1.0000   0.0000   0.0000   0.0000   0.0000   0.0000

          k = 0.0833 0.5292 0.1550 (   238 PWs)   bands (ev):

  -162.6639-161.6045-102.9430-100.3891 -98.8405 -98.4067 -93.9779 -93.0378
   -18.6738 -17.1056 -14.5275 -13.5088 -13.3922  -9.2400  -7.1089  -5.6154
    -4.7674  -3.4280  -1.7270   0.2200   4.5846   4.9123   7.4404   8.0135
     8.2735   8.8926  14.4655  16.1357  18.3202  18.7072  21.4045

     occupation numbers 
     1.0000   1.0000   1.0000   1.0000   1.0000   1.0000   1.0000   1.0000
     1.0000   1.0000   1.0000   1.0000   1.0000   1.0000   1.0000   1.0000
     1.0000   1.0000   1.0000   1.0000   1.0000   1.0000   1.0000   1.0000
     1.0000   1.0000   0.0000   0.0000   0.0000   0.0000   0.0000

          k = 0.0833 0.5292 0.2325 (   235 PWs)   bands (ev):

  -162.0224-161.5700-100.2989 -99.3456 -98.7336 -98.0767 -93.9770 -92.7093
   -18.9781 -16.8250 -13.6063 -13.4180 -10.0304  -9.1723  -6.2148  -5.5857
    -3.8944  -1.0879   0.1075   0.8200   4.5088   4.7264   7.8273   8.3122
     8.5914   9.3445  14.5936  15.7091  18.4325  19.1415  21.1542

     occupation numbers 
     1.0000   1.0000   1.0000   1.0000   1.0000   1.0000   1.0000   1.0000
     1.0000   1.0000   1.0000   1.0000   1.0000   1.0000   1.0000   1.0000
     1.0000   1.0000   1.0000   1.0000   1.0000   1.0000   1.0000   1.0000
     1.0000   1.0000   0.0000   0.0000   0.0000   0.0000   0.0000

          k = 0.0833 0.5292-0.3100 (   236 PWs)   bands (ev):

  -161.9097-161.9097-100.2642-100.2642 -98.0527 -98.0527 -94.0628 -94.0628
   -17.1122 -17.1122 -13.5951 -13.5951  -9.4714  -9.4714  -7.3564  -7.3564
    -4.2400  -4.2400   0.0255   0.0255   4.4674   4.4674   8.1608   8.1608
     9.2831   9.2831  15.1505  15.1505  18.9290  18.9290  21.0311

     occupation numbers 
     1.0000   1.0000   1.0000   1.0000   1.0000   1.0000   1.0000   1.0000
     1.0000   1.0000   1.0000   1.0000   1.0000   1.0000   1.0000   1.0000
     1.0000   1.0000   1.0000   1.0000   1.0000   1.0000   1.0000   1.0000
     1.0000   1.0000   0.0000   0.0000   0.0000   0.0000   0.0000

          k = 0.1667 0.2887 0.0000 (   251 PWs)   bands (ev):

  -164.8664-162.5770-105.1387-104.7155-100.7592 -99.6830 -98.6471 -97.3612
   -19.7527 -19.6132 -19.1829 -15.9805 -14.0649 -13.6003 -12.5459 -10.4068
    -9.7647  -8.6793  -8.1546  -3.4285   4.5854   4.8002   6.8088   7.8439
     8.3490   9.1584  13.0873  16.7361  18.6484  18.9482  20.8980

     occupation numbers 
     1.0000   1.0000   1.0000   1.0000   1.0000   1.0000   1.0000   1.0000
     1.0000   1.0000   1.0000   1.0000   1.0000   1.0000   1.0000   1.0000
     1.0000   1.0000   1.0000   1.0000   1.0000   1.0000   1.0000   1.0000
     1.0000   1.0000   0.0000   0.0000   0.0000   0.0000   0.0000

          k = 0.1667 0.2887 0.0775 (   242 PWs)   bands (ev):

  -163.4320-161.7970-102.8269-100.0788 -99.2795 -98.2984 -97.6817 -95.0581
   -17.8500 -17.1626 -14.4080 -13.9136 -13.7328 -11.8072 -11.2298  -7.3941
    -6.6929  -5.9007  -2.4955  -1.8665   4.7643   5.1281   7.0739   8.1679
     8.7343   9.2760  13.4273  16.9580  18.5825  19.0982  21.1983

     occupation numbers 
     1.0000   1.0000   1.0000   1.0000   1.0000   1.0000   1.0000   1.0000
     1.0000   1.0000   1.0000   1.0000   1.0000   1.0000   1.0000   1.0000
     1.0000   1.0000   1.0000   1.0000   1.0000   1.0000   1.0000   1.0000
     1.0000   1.0000   0.0000   0.0000   0.0000   0.0000   0.0000

          k = 0.1667 0.2887 0.1550 (   239 PWs)   bands (ev):

  -162.9053-161.6714-100.3490 -99.4686 -99.1433 -97.5537 -97.1174 -95.3675
   -16.9056 -16.3949 -13.8444 -13.7938 -11.8578 -10.8325  -9.0719  -7.1443
    -5.4223  -4.9314  -3.0859  -1.0813   4.6905   5.0316   7.6089   8.3655
     9.1253   9.4060  13.8829  16.7596  18.2760  19.0989  21.0857

     occupation numbers 
     1.0000   1.0000   1.0000   1.0000   1.0000   1.0000   1.0000   1.0000
     1.0000   1.0000   1.0000   1.0000   1.0000   1.0000   1.0000   1.0000
     1.0000   1.0000   1.0000   1.0000   1.0000   1.0000   1.0000   1.0000
     1.0000   1.0000   0.0000   0.0000   0.0000   0.0000   0.0000

          k = 0.1667 0.2887 0.2325 (   241 PWs)   bands (ev):

  -162.7204-162.2973-100.5940-100.1655 -99.1692 -98.9555 -97.6824 -95.5653
   -16.0921 -15.6890 -14.7148 -13.9548 -12.9420 -11.5124  -9.7022  -9.3350
    -7.3495  -5.4467  -4.3395  -1.7687   4.4640   5.1224   8.1325   8.3745
     8.8018   9.5282  14.5175  15.7363  18.2293  18.8728  21.0741

     occupation numbers 
     1.0000   1.0000   1.0000   1.0000   1.0000   1.0000   1.0000   1.0000
     1.0000   1.0000   1.0000   1.0000   1.0000   1.0000   1.0000   1.0000
     1.0000   1.0000   1.0000   1.0000   1.0000   1.0000   1.0000   1.0000
     1.0000   1.0000   0.0000   0.0000   0.0000   0.0000   0.0000

          k = 0.1667 0.2887-0.3100 (   238 PWs)   bands (ev):

  -162.1631-162.1631 -99.0697 -99.0697 -98.5820 -98.5820 -96.1527 -96.1527
   -15.7293 -15.7293 -13.8490 -13.8490 -11.1207 -11.1207  -8.9548  -8.9548
    -4.3918  -4.3918  -1.4932  -1.4932   4.8533   4.8533   8.5392   8.5392
     8.8379   8.8379  15.1749  15.1749  18.5382  18.5382  21.3575

     occupation numbers 
     1.0000   1.0000   1.0000   1.0000   1.0000   1.0000   1.0000   1.0000
     1.0000   1.0000   1.0000   1.0000   1.0000   1.0000   1.0000   1.0000
     1.0000   1.0000   1.0000   1.0000   1.0000   1.0000   1.0000   1.0000
     1.0000   1.0000   0.0000   0.0000   0.0000   0.0000   0.0000

          k = 0.1667 0.3849 0.0000 (   236 PWs)   bands (ev):

  -162.8819-160.9721-101.1826 -99.6947 -98.3658 -96.8473 -94.3444 -93.7517
   -18.0579 -14.9571 -13.9676 -13.3604 -12.6657 -11.3162  -9.1279  -5.1327
    -2.2951  -1.5804   0.3043   1.1556   4.9200   5.2936   7.0542   7.7939
     8.6185   8.8430  14.5886  17.6514  18.1117  19.1617  20.8852

     occupation numbers 
     1.0000   1.0000   1.0000   1.0000   1.0000   1.0000   1.0000   1.0000
     1.0000   1.0000   1.0000   1.0000   1.0000   1.0000   1.0000   1.0000
     1.0000   1.0000   1.0000   1.0000   1.0000   1.0000   1.0000   1.0000
     1.0000   1.0000   0.0000   0.0000   0.0000   0.0000   0.0000

          k = 0.1667 0.3849 0.0775 (   241 PWs)   bands (ev):

  -163.5391-161.5004-103.3460-101.7106 -98.7083 -97.4358 -96.7526 -93.8477
   -18.7816 -16.7038 -16.1164 -13.8261 -13.4093 -11.9913  -9.9573  -7.4228
    -5.7426  -3.7879  -1.9476   0.3123   4.8028   5.0536   7.1124   7.6825
     8.3370   8.6339  14.4796  17.5681  17.9189  19.1208  20.7464

     occupation numbers 
     1.0000   1.0000   1.0000   1.0000   1.0000   1.0000   1.0000   1.0000
     1.0000   1.0000   1.0000   1.0000   1.0000   1.0000   1.0000   1.0000
     1.0000   1.0000   1.0000   1.0000   1.0000   1.0000   1.0000   1.0000
     1.0000   1.0000   0.0000   0.0000   0.0000   0.0000   0.0000

          k = 0.1667 0.3849 0.1550 (   236 PWs)   bands (ev):

  -162.5000-161.3725-101.3240 -99.0958 -97.5865 -96.4199 -95.8513 -94.2466
   -17.7257 -15.1387 -13.8034 -13.2265 -12.1317 -10.4113  -9.0417  -5.2515
    -4.5115  -1.9567  -0.2593   1.4100   4.8726   4.9646   7.6310   7.9566
     8.7979   8.9586  14.6745  17.1942  18.1552  19.1908  20.7094

     occupation numbers 
     1.0000   1.0000   1.0000   1.0000   1.0000   1.0000   1.0000   1.0000
     1.0000   1.0000   1.0000   1.0000   1.0000   1.0000   1.0000   1.0000
     1.0000   1.0000   1.0000   1.0000   1.0000   1.0000   1.0000   1.0000
     1.0000   1.0000   0.0000   0.0000   0.0000   0.0000   0.0000

          k = 0.1667 0.3849 0.2325 (   235 PWs)   bands (ev):

  -162.0580-161.5400 -99.7883 -98.5274 -97.6270 -97.5070 -95.4024 -94.0710
   -16.7167 -14.3656 -13.6216 -12.5892 -10.6874 -10.1506  -8.7738  -7.1846
    -2.8442  -2.0585  -0.6941   0.5655   4.8191   4.9475   8.0065   8.2700
     8.5876   9.1520  14.8920  16.5327  18.3507  19.0823  20.6946

     occupation numbers 
     1.0000   1.0000   1.0000   1.0000   1.0000   1.0000   1.0000   1.0000
     1.0000   1.0000   1.0000   1.0000   1.0000   1.0000   1.0000   1.0000
     1.0000   1.0000   1.0000   1.0000   1.0000   1.0000   1.0000   1.0000
     1.0000   1.0000   0.0000   0.0000   0.0000   0.0000   0.0000

          k = 0.1667 0.3849-0.3100 (   238 PWs)   bands (ev):

  -162.1603-162.1603 -99.5486 -99.5486 -98.5380 -98.5380 -95.6380 -95.6380
   -15.5704 -15.5704 -13.6149 -13.6149 -11.5705 -11.5705  -8.7856  -8.7856
    -5.1930  -5.1930  -0.6419  -0.6419   4.6027   4.6027   8.2181   8.2181
     8.8342   8.8342  15.6261  15.6261  18.7479  18.7479  20.7771

[...]
   -15.2923 -14.0590 -13.5677 -12.9116  -9.9807  -8.1878  -5.8793  -3.5853
    -1.4044  -0.0316   0.3113   0.8601   5.1107   5.2941   7.3596   7.4346
     8.3320   8.7281  15.7953  17.5835  19.1250  19.4451  20.7469

     occupation numbers 
     1.0000   1.0000   1.0000   1.0000   1.0000   1.0000   1.0000   1.0000
     1.0000   1.0000   1.0000   1.0000   1.0000   1.0000   1.0000   1.0000
     1.0000   1.0000   1.0000   1.0000   1.0000   1.0000   1.0000   1.0000
     1.0000   1.0000   0.0000   0.0000   0.0000   0.0000   0.0000

          k = 0.2500 0.4330 0.0775 (   234 PWs)   bands (ev):

  -162.4586-160.8098-102.1912 -99.8634 -97.6045 -95.8654 -93.1121 -92.5291
   -16.7183 -14.8384 -13.6025 -13.4642 -10.3801  -9.6380  -6.2761  -5.7034
    -4.0110  -2.7703   1.5341   1.5379   5.0518   5.1053   7.4294   7.4452
     8.2249   8.3672  15.5594  17.4972  19.0188  19.2495  20.6396

     occupation numbers 
     1.0000   1.0000   1.0000   1.0000   1.0000   1.0000   1.0000   1.0000
     1.0000   1.0000   1.0000   1.0000   1.0000   1.0000   1.0000   1.0000
     1.0000   1.0000   1.0000   1.0000   1.0000   1.0000   1.0000   1.0000
     1.0000   1.0000   0.0000   0.0000   0.0000   0.0000   0.0000

          k = 0.2500 0.4330 0.1550 (   235 PWs)   bands (ev):

  -162.4225-161.1993-101.9979 -99.8203 -96.8466 -95.4608 -94.8722 -93.9873
   -16.5998 -15.9125 -13.5715 -13.4243 -11.4773 -10.3760  -7.8069  -5.9086
    -3.4184  -2.2492   0.9735   1.7466   4.9322   5.0127   7.3489   7.9433
     8.2887   8.6919  15.4709  17.2522  18.7717  19.0379  20.1077

     occupation numbers 
     1.0000   1.0000   1.0000   1.0000   1.0000   1.0000   1.0000   1.0000
     1.0000   1.0000   1.0000   1.0000   1.0000   1.0000   1.0000   1.0000
     1.0000   1.0000   1.0000   1.0000   1.0000   1.0000   1.0000   1.0000
     1.0000   1.0000   0.0000   0.0000   0.0000   0.0000   0.0000

          k = 0.2500 0.4330 0.2325 (   237 PWs)   bands (ev):

  -162.2662-161.8770-101.0694 -99.8866 -97.8065 -97.5680 -95.0767 -94.8616
   -15.3176 -15.0399 -13.3456 -13.1563 -11.6498 -10.1366  -9.3882  -8.4896
    -4.6674  -4.3380  -0.7069  -0.6725   4.6170   4.6951   7.4630   8.0421
     8.3511   8.8390  15.6878  16.6862  18.8405  18.9515  20.0131

     occupation numbers 
     1.0000   1.0000   1.0000   1.0000   1.0000   1.0000   1.0000   1.0000
     1.0000   1.0000   1.0000   1.0000   1.0000   1.0000   1.0000   1.0000
     1.0000   1.0000   1.0000   1.0000   1.0000   1.0000   1.0000   1.0000
     1.0000   1.0000   0.0000   0.0000   0.0000   0.0000   0.0000

          k = 0.2500 0.4330-0.3100 (   236 PWs)   bands (ev):

  -161.9880-161.9880 -99.5228 -99.5228 -98.2090 -98.2090 -94.8224 -94.8224
   -14.4774 -14.4774 -12.4492 -12.4492 -11.6571 -11.6571  -9.5431  -9.5431
    -4.0480  -4.0480  -0.0158  -0.0158   4.5926   4.5926   7.6816   7.6816
     9.2621   9.2621  16.1435  16.1435  18.8449  18.8449  20.2300

     occupation numbers 
     1.0000   1.0000   1.0000   1.0000   1.0000   1.0000   1.0000   1.0000
     1.0000   1.0000   1.0000   1.0000   1.0000   1.0000   1.0000   1.0000
     1.0000   1.0000   1.0000   1.0000   1.0000   1.0000   1.0000   1.0000
     1.0000   1.0000   0.0000   0.0000   0.0000   0.0000   0.0000

          k = 0.2500 0.5292 0.0000 (   233 PWs)   bands (ev):

  -162.5577-160.5484-100.5014-100.1767 -97.5758 -96.3240 -92.9063 -92.0906
   -17.6153 -13.9346 -13.6231 -11.0712  -9.8304  -8.5522  -7.3608  -4.7017
    -3.3590  -3.1954   1.0208   1.6433   4.7949   5.3443   7.0249   7.6116
     7.9253   8.2637  16.5606  17.2375  18.8760  19.2611  20.7194

     occupation numbers 
     1.0000   1.0000   1.0000   1.0000   1.0000   1.0000   1.0000   1.0000
     1.0000   1.0000   1.0000   1.0000   1.0000   1.0000   1.0000   1.0000
     1.0000   1.0000   1.0000   1.0000   1.0000   1.0000   1.0000   1.0000
     1.0000   1.0000   0.0000   0.0000   0.0000   0.0000   0.0000

          k = 0.2500 0.5292 0.0775 (   227 PWs)   bands (ev):

  -161.4979-160.1207 -99.4752 -97.7063 -95.7816 -93.1075 -92.7431 -91.2607
   -14.0240 -13.7701 -13.1205 -10.0054  -7.3242  -6.4398  -4.0550  -3.6582
    -1.4558   0.3080   2.1876   3.2141   5.0376   5.3477   7.1610   7.9903
     8.3112   8.4645  16.5714  17.5611  18.8804  19.4721  20.8223

     occupation numbers 
     1.0000   1.0000   1.0000   1.0000   1.0000   1.0000   1.0000   1.0000
     1.0000   1.0000   1.0000   1.0000   1.0000   1.0000   1.0000   1.0000
     1.0000   1.0000   1.0000   1.0000   1.0000   1.0000   1.0000   1.0000
     1.0000   1.0000   0.0000   0.0000   0.0000   0.0000   0.0000

          k = 0.2500 0.5292 0.1550 (   233 PWs)   bands (ev):

  -161.7512-161.3536-100.9178 -99.3883 -97.5523 -95.3655 -93.5989 -93.1323
   -14.6852 -14.1925 -13.8077 -12.4095 -11.1044  -7.2917  -6.7416  -4.7342
    -4.0927  -2.6034  -1.3476   1.1945   4.8371   4.9859   7.0968   8.0509
     8.2480   8.5274  16.3006  17.4366  18.3756  19.1980  20.4026

     occupation numbers 
     1.0000   1.0000   1.0000   1.0000   1.0000   1.0000   1.0000   1.0000
     1.0000   1.0000   1.0000   1.0000   1.0000   1.0000   1.0000   1.0000
     1.0000   1.0000   1.0000   1.0000   1.0000   1.0000   1.0000   1.0000
     1.0000   1.0000   0.0000   0.0000   0.0000   0.0000   0.0000

          k = 0.2500 0.5292 0.2325 (   238 PWs)   bands (ev):

  -162.3160-162.0685-102.2211-101.0777 -98.2278 -96.7973 -95.3555 -94.3167
   -15.6906 -14.7849 -13.6467 -13.2703 -12.6936 -11.2433  -7.1206  -6.7862
    -5.2937  -4.7404  -3.2680  -2.3570   4.4311   4.5827   7.2533   7.7150
     8.3696   8.6852  16.0420  16.7571  18.6121  19.0151  20.1176

     occupation numbers 
     1.0000   1.0000   1.0000   1.0000   1.0000   1.0000   1.0000   1.0000
     1.0000   1.0000   1.0000   1.0000   1.0000   1.0000   1.0000   1.0000
     1.0000   1.0000   1.0000   1.0000   1.0000   1.0000   1.0000   1.0000
     1.0000   1.0000   0.0000   0.0000   0.0000   0.0000   0.0000

          k = 0.2500 0.5292-0.3100 (   234 PWs)   bands (ev):

  -161.7385-161.7385-100.3714-100.3714 -96.7713 -96.7713 -93.9434 -93.9434
   -14.6252 -14.6252 -13.2813 -13.2813 -11.2064 -11.2064  -5.1577  -5.1577
    -2.6691  -2.6691  -1.6512  -1.6512   4.5236   4.5236   7.5475   7.5475
     9.4950   9.4950  16.3769  16.3769  18.9727  18.9727  20.2170

     occupation numbers 
     1.0000   1.0000   1.0000   1.0000   1.0000   1.0000   1.0000   1.0000
     1.0000   1.0000   1.0000   1.0000   1.0000   1.0000   1.0000   1.0000
     1.0000   1.0000   1.0000   1.0000   1.0000   1.0000   1.0000   1.0000
     1.0000   1.0000   0.0000   0.0000   0.0000   0.0000   0.0000

          k = 0.3333 0.5774 0.0000 (   222 PWs)   bands (ev):

  -160.2066-160.2066 -95.2857 -94.5248 -94.5248 -93.1999 -93.1999 -91.2385
   -13.5519 -13.5519  -6.9759  -6.9759  -6.9712  -5.3031  -1.7217  -1.7217
     0.0366   0.0366   1.4430   5.1817   5.1817   5.8958   7.5264   8.0513
     8.0513   8.5105  17.1953  18.6028  18.6028  20.3969  21.2733

     occupation numbers 
     1.0000   1.0000   1.0000   1.0000   1.0000   1.0000   1.0000   1.0000
     1.0000   1.0000   1.0000   1.0000   1.0000   1.0000   1.0000   1.0000
     1.0000   1.0000   1.0000   1.0000   1.0000   1.0000   1.0000   1.0000
     1.0000   1.0000   0.0000   0.0000   0.0000   0.0000   0.0000

          k = 0.3333 0.5774 0.0775 (   231 PWs)   bands (ev):

  -161.3014-161.3014 -99.0617 -99.0617 -98.4264 -93.7404 -93.1832 -93.1832
   -15.1407 -13.7839 -13.7839  -9.0610  -9.0610  -5.3406  -5.0608  -5.0608
    -5.0588  -2.1190  -2.1190   1.5697   5.1318   5.1318   6.7902   8.0689
     8.0689   8.2331  17.3328  17.7442  17.7442  19.6722  20.8036

     occupation numbers 
     1.0000   1.0000   1.0000   1.0000   1.0000   1.0000   1.0000   1.0000
     1.0000   1.0000   1.0000   1.0000   1.0000   1.0000   1.0000   1.0000
     1.0000   1.0000   1.0000   1.0000   1.0000   1.0000   1.0000   1.0000
     1.0000   1.0000   0.0000   0.0000   0.0000   0.0000   0.0000

          k = 0.3333 0.5774 0.1550 (   237 PWs)   bands (ev):

  -162.0678-162.0678-101.5241-101.5241 -98.6404 -95.0173 -94.8296 -94.8296
   -15.1791 -14.4320 -14.4320 -12.5384 -12.5384  -9.2872  -6.4445  -6.4445
    -6.1703  -4.4045  -4.4045  -0.8820   4.6636   4.6636   6.8908   7.9222
     8.2175   8.2175  17.1557  17.1557  17.7173  19.4222  20.4509

     occupation numbers 
     1.0000   1.0000   1.0000   1.0000   1.0000   1.0000   1.0000   1.0000
     1.0000   1.0000   1.0000   1.0000   1.0000   1.0000   1.0000   1.0000
     1.0000   1.0000   1.0000   1.0000   1.0000   1.0000   1.0000   1.0000
     1.0000   1.0000   0.0000   0.0000   0.0000   0.0000   0.0000

          k = 0.3333 0.5774 0.2325 (   237 PWs)   bands (ev):

  -162.0994-162.0994-101.5108-101.5108 -98.7027 -95.0743 -94.9858 -94.9858
   -15.1307 -14.4989 -14.4989 -12.5265 -12.5265  -9.4464  -6.4698  -6.4698
    -6.2411  -4.3847  -4.3847  -0.9560   4.5432   4.5432   7.1346   7.5737
     8.5562   8.5562  16.6767  16.6767  18.2168  19.1552  20.2768

     occupation numbers 
     1.0000   1.0000   1.0000   1.0000   1.0000   1.0000   1.0000   1.0000
     1.0000   1.0000   1.0000   1.0000   1.0000   1.0000   1.0000   1.0000
     1.0000   1.0000   1.0000   1.0000   1.0000   1.0000   1.0000   1.0000
     1.0000   1.0000   0.0000   0.0000   0.0000   0.0000   0.0000

          k = 0.3333 0.5774-0.3100 (   234 PWs)   bands (ev):

  -161.6981-161.6981-101.2703-101.2703 -96.4707 -96.4707 -93.3457 -93.3457
   -14.5775 -14.5775 -14.3402 -14.3402 -11.6912 -11.6912  -4.4175  -4.4175
    -2.2260  -2.2260  -0.9985  -0.9985   4.6271   4.6271   7.3425   7.3425
     9.4870   9.4870  16.6382  16.6382  18.7349  18.7349  20.2813

     occupation numbers 
     1.0000   1.0000   1.0000   1.0000   1.0000   1.0000   1.0000   1.0000
     1.0000   1.0000   1.0000   1.0000   1.0000   1.0000   1.0000   1.0000
     1.0000   1.0000   1.0000   1.0000   1.0000   1.0000   1.0000   1.0000
     1.0000   1.0000   0.0000   0.0000   0.0000   0.0000   0.0000

     the Fermi energy is    10.1252 ev

!    total energy              =    -940.60658428 Ry
     estimated scf accuracy    <          5.5E-09 Ry
     smearing contrib. (-TS)   =       0.00000060 Ry
     internal energy E=F+TS    =    -940.60658488 Ry

     The total energy is F=E-TS. E is the sum of the following terms:
     one-electron contribution =    -623.65463710 Ry
     hartree contribution      =     294.82544604 Ry
     xc contribution           =     -84.57331117 Ry
     ewald contribution        =    -508.17051051 Ry
     one-center paw contrib.   =     -19.03357213 Ry
      -> PAW hartree energy AE =      82.39509170 Ry
      -> PAW hartree energy PS =     -82.44247242 Ry
      -> PAW xc energy AE      =     -37.90316267 Ry
      -> PAW xc energy PS      =      18.91697125 Ry
      -> total E_H with PAW    =     294.77806532 Ry
      -> total E_XC with PAW   =    -103.55950259 Ry

     convergence has been achieved in  10 iterations

     Forces acting on atoms (cartesian axes, Ry/au):

     atom    1 type  2   force =     0.00000000    0.00000000   -0.01386694
     atom    2 type  2   force =     0.00000000    0.00000000   -0.01386694
     atom    3 type  1   force =     0.00000000    0.00000000    0.01386694
     atom    4 type  1   force =    -0.00000000   -0.00000000    0.01386694
     The non-local contrib.  to forces
     atom    1 type  2   force =     0.00000000    0.00000000   -0.03456704
     atom    2 type  2   force =     0.00000000    0.00000000   -0.03456704
     atom    3 type  1   force =     0.00000000   -0.00000000    0.01626322
     atom    4 type  1   force =     0.00000000    0.00000000    0.01626322
     The ionic contribution  to forces
     atom    1 type  2   force =    -0.00000062    0.00000036    0.08378819
     atom    2 type  2   force =     0.00000062   -0.00000036    0.08378819
     atom    3 type  1   force =    -0.00000053    0.00000031   -0.08378819
     atom    4 type  1   force =     0.00000053   -0.00000031   -0.08378819
     The local contribution  to forces
     atom    1 type  2   force =    -0.00000724    0.00000418   -0.06570596
     atom    2 type  2   force =     0.00002173   -0.00001254   -0.06570644
     atom    3 type  1   force =    -0.00000028    0.00000016    0.07968749
     atom    4 type  1   force =     0.00000084   -0.00000048    0.07968832
     The core correction contribution to forces
     atom    1 type  2   force =     0.00000000    0.00000000    0.00000000
     atom    2 type  2   force =     0.00000000    0.00000000    0.00000000
     atom    3 type  1   force =     0.00000000   -0.00000000   -0.00093758
     atom    4 type  1   force =    -0.00000000    0.00000000   -0.00093758
     The Hubbard contrib.    to forces
     atom    1 type  2   force =     0.00000000    0.00000000    0.00000000
     atom    2 type  2   force =     0.00000000    0.00000000    0.00000000
     atom    3 type  1   force =     0.00000000    0.00000000    0.00000000
     atom    4 type  1   force =     0.00000000    0.00000000    0.00000000
     The SCF correction term to forces
     atom    1 type  2   force =     0.00000000   -0.00000000   -0.00002236
     atom    2 type  2   force =    -0.00000000    0.00000000   -0.00002236
     atom    3 type  1   force =    -0.00000000    0.00000000    0.00000111
     atom    4 type  1   force =    -0.00000000    0.00000000    0.00000111

     Total force =     0.027734     Total SCF correction =     0.000032


     Computing stress (Cartesian axis) and pressure

          total   stress  (Ry/bohr**3)                   (kbar)     P=   -89418.10
  -0.60786751   0.00000000   0.00000000       -89420.40        0.00        0.00
   0.00000000  -0.60786751   0.00000000            0.00   -89420.40        0.00
   0.00000000   0.00000000  -0.60782074            0.00        0.00   -89413.52

     kinetic stress (kbar)  51395.90      0.00      0.00
                                0.00  51395.90      0.00
                                0.00      0.00  51384.78

     local   stress (kbar) -14075.33     -0.00      0.00
                               -0.00 -14075.34     -0.00
                                0.00     -0.00 -18091.28

     nonloc. stress (kbar) -80377.31      0.00      0.00
                                0.00 -80377.31     -0.00
                                0.00     -0.00 -80367.19

     hartree stress (kbar)  44581.78     -0.00     -0.00
                               -0.00  44581.78      0.00
                               -0.00      0.00  46431.50

     exc-cor stress (kbar) -11983.83     -0.00      0.00
                               -0.00 -11983.83     -0.00
                                0.00     -0.00 -11984.29

     corecor stress (kbar)   -331.21      0.00      0.00
                                0.00   -331.21     -0.00
                                0.00     -0.00   -331.87

     ewald   stress (kbar) -78630.39      0.00      0.00
                                0.00 -78630.39      0.00
                                0.00      0.00 -76455.16

     hubbard stress (kbar)      0.00      0.00      0.00
                                0.00      0.00      0.00
                                0.00      0.00      0.00

     DFT-D   stress (kbar)      0.00      0.00      0.00
                                0.00      0.00      0.00
                                0.00      0.00      0.00

     XDM     stress (kbar)      0.00      0.00      0.00
                                0.00      0.00      0.00
                                0.00      0.00      0.00

     dft-nl  stress (kbar)      0.00      0.00      0.00
                                0.00      0.00      0.00
                                0.00      0.00      0.00

     TS-vdW  stress (kbar)      0.00      0.00      0.00
                                0.00      0.00      0.00
                                0.00      0.00      0.00

     MDB     stress (kbar)      0.00      0.00      0.00
                                0.00      0.00      0.00
                                0.00      0.00      0.00

     3D-RISM stress (kbar)      0.00      0.00      0.00
                                0.00      0.00      0.00
                                0.00      0.00      0.00


     Writing all to output data dir ./temp_hexag/aiida.save/ :
     XML data file, charge density, pseudopotentials, collected wavefunctions

     init_run     :    255.19s CPU     10.75s WALL (       1 calls)
     electrons    :   6132.64s CPU    257.27s WALL (       1 calls)
     forces       :    149.17s CPU      6.42s WALL (       1 calls)
     stress       :    139.80s CPU      6.01s WALL (       1 calls)

     Called by init_run:
     wfcinit      :    251.21s CPU     10.49s WALL (       1 calls)
     wfcinit:atom :      3.09s CPU      0.10s WALL (      95 calls)
     wfcinit:wfcr :    245.59s CPU     10.30s WALL (      95 calls)
     potinit      :      1.82s CPU      0.10s WALL (       1 calls)
     hinit0       :      1.53s CPU      0.13s WALL (       1 calls)

     Called by electrons:
     c_bands      :   5093.55s CPU    213.48s WALL (      10 calls)
     sum_band     :   1023.22s CPU     43.09s WALL (      10 calls)
     v_of_rho     :      1.19s CPU      0.06s WALL (      11 calls)
     v_h          :      0.05s CPU      0.02s WALL (      11 calls)
     v_xc         :      1.63s CPU      0.06s WALL (      13 calls)
     newd         :      4.71s CPU      0.20s WALL (      11 calls)
     PAW_pot      :     10.94s CPU      0.46s WALL (      11 calls)
     mix_rho      :      0.12s CPU      0.02s WALL (      10 calls)

     Called by c_bands:
     init_us_2    :     38.89s CPU      1.76s WALL (    2185 calls)
     cegterg      :   4989.82s CPU    209.31s WALL (     950 calls)

     Called by sum_band:
     sum_band:wei :      0.06s CPU      0.02s WALL (      10 calls)
     sum_band:loo :   1019.20s CPU     42.90s WALL (      10 calls)
     sum_band:buf :      0.18s CPU      0.02s WALL (     950 calls)
     sum_band:ini :     17.48s CPU      0.74s WALL (     950 calls)
     sum_band:cal :     14.16s CPU      0.59s WALL (     950 calls)
     sum_band:bec :     60.83s CPU      2.59s WALL (     950 calls)
     addusdens    :      3.72s CPU      0.15s WALL (      10 calls)
                                        0.00s GPU  (      10 calls)
     addusd:skk   :      0.00s CPU      0.00s WALL (      20 calls)
                                        0.00s GPU  (      20 calls)

     Called by *egterg:
     cdiaghg      :     98.52s CPU      3.97s WALL (    3452 calls)
     cegterg:over :     46.68s CPU      2.06s WALL (    2502 calls)
     cegterg:upda :     62.68s CPU      2.83s WALL (    2502 calls)
     cegterg:last :     82.92s CPU      2.70s WALL (    1874 calls)
     h_psi        :   4727.88s CPU    198.49s WALL (    3547 calls)
     s_psi        :     38.11s CPU      1.84s WALL (    3547 calls)
     g_psi        :     49.75s CPU      2.21s WALL (    2502 calls)

     Called by h_psi:
     h_psi:calbec :     38.40s CPU      1.60s WALL (    3547 calls)
     vloc_psi     :   4570.10s CPU    191.54s WALL (    3547 calls)
     add_vuspsi   :     42.66s CPU      1.82s WALL (    3547 calls)

     General routines
     calbec       :     58.09s CPU      2.44s WALL (    4972 calls)
     fft          :      0.67s CPU      0.02s WALL (     166 calls)
     ffts         :      0.22s CPU      0.00s WALL (      21 calls)
     fftw         :    152.59s CPU      6.22s WALL (  182148 calls)
     interpolate  :      0.00s CPU      0.00s WALL (      11 calls)

     Parallel routines

     PAW routines
     PAW_pot      :     10.94s CPU      0.46s WALL (      11 calls)
     PAW_symme    :      0.00s CPU      0.00s WALL (      21 calls)

     PWSCF        :      1h51m CPU   4m42.54s WALL


   This run was terminated on:  14:19:59  12Jun2024            

=------------------------------------------------------------------------------=
   JOB DONE.
=------------------------------------------------------------------------------=
