
     Program PWSCF v.7.3.1 starts on 11Jun2024 at 23: 8:38 

     This program is part of the open-source Quantum ESPRESSO suite
     for quantum simulation of materials; please cite
         "P. Giannozzi et al., J. Phys.:Condens. Matter 21 395502 (2009);
         "P. Giannozzi et al., J. Phys.:Condens. Matter 29 465901 (2017);
         "P. Giannozzi et al., J. Chem. Phys. 152 154105 (2020);
          URL http://www.quantum-espresso.org", 
     in publications or presentations arising from this work. More details at
     http://www.quantum-espresso.org/quote

     Parallel version (MPI & OpenMP), running on      24 processor cores
     Number of MPI processes:                 1
     Threads/MPI process:                    24

     MPI processes distributed on     1 nodes
     4795 MiB available memory on the printing compute node when the environment starts

     Waiting for input...
     Reading input from standard input

     Current dimensions of program PWSCF are:
     Max number of different atomic species (ntypx) = 10
     Max number of k-points (npk) =  40000
     Max angular momentum in pseudopotentials (lmaxx) =  4
     file O.pbe-n-kjpaw_psl.0.1.UPF: wavefunction(s)  2P renormalized
     Message from routine setup:
     using ibrav=0 with symmetry is DISCOURAGED, use correct ibrav instead

     Subspace diagonalization in iterative solution of the eigenvalue problem:
     a serial algorithm will be used


     G-vector sticks info
     --------------------
     sticks:   dense  smooth     PW     G-vecs:    dense   smooth      PW
     Sum        1069     535    163                45797    16215    2755

     Using Slab Decomposition



     bravais-lattice index     =            0
     lattice parameter (alat)  =       6.2401  a.u.
     unit-cell volume          =     339.4293 (a.u.)^3
     number of atoms/cell      =            4
     number of atomic types    =            2
     number of electrons       =        52.00
     number of Kohn-Sham states=           31
     kinetic-energy cutoff     =      50.0000  Ry
     charge density cutoff     =     400.0000  Ry
     scf convergence threshold =      2.0E-08
     mixing beta               =       0.4000
     number of iterations used =            8  plain     mixing
     Exchange-correlation= SLA  PW   PBE  PBE
                           (   1   4   3   4   0   0   0)

     celldm(1)=   6.240061  celldm(2)=   0.000000  celldm(3)=   0.000000
     celldm(4)=   0.000000  celldm(5)=   0.000000  celldm(6)=   0.000000

     crystal axes: (cart. coord. in units of alat)
               a(1) = (   1.000000   0.000000   0.000000 )  
               a(2) = (  -0.500000   0.866025   0.000000 )  
               a(3) = (   0.000000   0.000000   1.613066 )  

     reciprocal axes: (cart. coord. in units 2 pi/alat)
               b(1) = (  1.000000  0.577350 -0.000000 )  
               b(2) = (  0.000000  1.154701  0.000000 )  
               b(3) = (  0.000000 -0.000000  0.619937 )  


     PseudoPot. # 1 for O  read from file:
     ../SSSP_1.3.0_PBE_efficiency/O.pbe-n-kjpaw_psl.0.1.UPF
     MD5 check sum: 0234752ac141de4415c5fc33072bef88
     Pseudo is Projector augmented-wave + core cor, Zval =  6.0
     Generated using "atomic" code by A. Dal Corso  v.5.0.99 svn rev. 10869
     Shape of augmentation charge: BESSEL
     Using radial grid of 1095 points,  4 beta functions with: 
                l(1) =   0
                l(2) =   0
                l(3) =   1
                l(4) =   1
     Q(r) pseudized with 0 coefficients 


     PseudoPot. # 2 for Zn read from file:
     ../SSSP_1.3.0_PBE_efficiency/Zn_pbe_v1.uspp.F.UPF
     MD5 check sum: df62231357ef9e81f77b2b3087fa5675
     Pseudo is Ultrasoft, Zval = 20.0
     Generated by new atomic code, or converted to UPF format
     Using radial grid of  943 points,  6 beta functions with: 
                l(1) =   0
                l(2) =   0
                l(3) =   1
                l(4) =   1
                l(5) =   2
                l(6) =   2
     Q(r) pseudized with  8 coefficients,  rinner =    1.100   1.100   1.100
                                                       1.100   1.100

     atomic species   valence    mass     pseudopotential
     O                 6.00    15.99940     O ( 1.00)
     Zn               20.00    65.38000     Zn( 1.00)

     12 Sym. Ops. (no inversion) found ( 6 have fractional translation)


                                    s                        frac. trans.

      isym =  1     identity                                     

 cryst.   s( 1) = (     1          0          0      )
                  (     0          1          0      )
                  (     0          0          1      )

 cart.    s( 1) = (  1.0000000  0.0000000  0.0000000 )
                  (  0.0000000  1.0000000  0.0000000 )
                  (  0.0000000  0.0000000  1.0000000 )


      isym =  2     180 deg rotation - cart. axis [0,0,1]        

 cryst.   s( 2) = (    -1          0          0      )    f =(  0.0000000 )
                  (     0         -1          0      )       (  0.0000000 )
                  (     0          0          1      )       (  0.5000000 )

 cart.    s( 2) = ( -1.0000000  0.0000000  0.0000000 )    f =(  0.0000000 )
                  (  0.0000000 -1.0000000  0.0000000 )       (  0.0000000 )
                  (  0.0000000  0.0000000  1.0000000 )       (  0.8065331 )


      isym =  3      60 deg rotation - cryst. axis [0,0,1]       

 cryst.   s( 3) = (     1          1          0      )    f =( -0.0000000 )
                  (    -1          0          0      )       (  0.0000000 )
                  (     0          0          1      )       (  0.5000000 )

 cart.    s( 3) = (  0.5000000 -0.8660254  0.0000000 )    f =( -0.0000000 )
                  (  0.8660254  0.5000000  0.0000000 )       (  0.0000000 )
                  (  0.0000000  0.0000000  1.0000000 )       (  0.8065331 )


      isym =  4      60 deg rotation - cryst. axis [0,0,-1]      

 cryst.   s( 4) = (     0         -1          0      )    f =(  0.0000000 )
                  (     1          1          0      )       (  0.0000000 )
                  (     0          0          1      )       (  0.5000000 )

 cart.    s( 4) = (  0.5000000  0.8660254  0.0000000 )    f =( -0.0000000 )
                  ( -0.8660254  0.5000000  0.0000000 )       (  0.0000000 )
                  (  0.0000000  0.0000000  1.0000000 )       (  0.8065331 )


      isym =  5     120 deg rotation - cryst. axis [0,0,1]       

 cryst.   s( 5) = (     0          1          0      )
                  (    -1         -1          0      )
                  (     0          0          1      )

 cart.    s( 5) = ( -0.5000000 -0.8660254  0.0000000 )
                  (  0.8660254 -0.5000000  0.0000000 )
                  (  0.0000000  0.0000000  1.0000000 )


      isym =  6     120 deg rotation - cryst. axis [0,0,-1]      

 cryst.   s( 6) = (    -1         -1          0      )
                  (     1          0          0      )
                  (     0          0          1      )

 cart.    s( 6) = ( -0.5000000  0.8660254  0.0000000 )
                  ( -0.8660254 -0.5000000  0.0000000 )
                  (  0.0000000  0.0000000  1.0000000 )


      isym =  7     inv. 180 deg rotation - cart. axis [0,1,0]   

 cryst.   s( 7) = (     1          0          0      )    f =( -0.0000000 )
                  (    -1         -1          0      )       (  0.0000000 )
                  (     0          0          1      )       (  0.5000000 )

 cart.    s( 7) = (  1.0000000  0.0000000  0.0000000 )    f =( -0.0000000 )
                  (  0.0000000 -1.0000000  0.0000000 )       (  0.0000000 )
                  (  0.0000000  0.0000000  1.0000000 )       (  0.8065331 )


      isym =  8     inv. 180 deg rotation - cart. axis [1,0,0]   

 cryst.   s( 8) = (    -1          0          0      )
                  (     1          1          0      )
                  (     0          0          1      )

 cart.    s( 8) = ( -1.0000000  0.0000000  0.0000000 )
                  (  0.0000000  1.0000000  0.0000000 )
                  (  0.0000000  0.0000000  1.0000000 )


      isym =  9     inv. 180 deg rotation - cryst. axis [1,-1,0] 

 cryst.   s( 9) = (     0          1          0      )    f =(  0.0000000 )
                  (     1          0          0      )       (  0.0000000 )
                  (     0          0          1      )       (  0.5000000 )

 cart.    s( 9) = ( -0.5000000  0.8660254  0.0000000 )    f =(  0.0000000 )
                  (  0.8660254  0.5000000  0.0000000 )       (  0.0000000 )
                  (  0.0000000  0.0000000  1.0000000 )       (  0.8065331 )


      isym = 10     inv. 180 deg rotation - cryst. axis [2,1,0]  

 cryst.   s(10) = (    -1         -1          0      )    f =(  0.0000000 )
                  (     0          1          0      )       (  0.0000000 )
                  (     0          0          1      )       (  0.5000000 )

 cart.    s(10) = ( -0.5000000 -0.8660254  0.0000000 )    f =( -0.0000000 )
                  ( -0.8660254  0.5000000  0.0000000 )       (  0.0000000 )
                  (  0.0000000  0.0000000  1.0000000 )       (  0.8065331 )


      isym = 11     inv. 180 deg rotation - cryst. axis [0,1,0]  

 cryst.   s(11) = (     1          1          0      )
                  (     0         -1          0      )
                  (     0          0          1      )

 cart.    s(11) = (  0.5000000  0.8660254  0.0000000 )
                  (  0.8660254 -0.5000000  0.0000000 )
                  (  0.0000000  0.0000000  1.0000000 )


      isym = 12     inv. 180 deg rotation - cryst. axis [1,1,0]  

 cryst.   s(12) = (     0         -1          0      )
                  (    -1          0          0      )
                  (     0          0          1      )

 cart.    s(12) = (  0.5000000 -0.8660254  0.0000000 )
                  ( -0.8660254 -0.5000000  0.0000000 )
                  (  0.0000000  0.0000000  1.0000000 )


   Cartesian axes

     site n.     atom                  positions (alat units)
         1        Zn     tau(   1) = (   0.5000000   0.2886751   0.8074875  )
         2        Zn     tau(   2) = (  -0.0000000   0.5773503   0.0009545  )
         3        O      tau(   3) = (   0.5000000   0.2886751   1.4190438  )
         4        O      tau(   4) = (  -0.0000000   0.5773503   0.6125107  )

   Crystallographic axes

     site n.     atom                  positions (cryst. coord.)
         1        Zn     tau(   1) = (  0.6666667  0.3333333  0.5005917  )
         2        Zn     tau(   2) = (  0.3333333  0.6666667  0.0005917  )
         3        O      tau(   3) = (  0.6666667  0.3333333  0.8797183  )
         4        O      tau(   4) = (  0.3333333  0.6666667  0.3797183  )

     number of k points=    95  Marzari-Vanderbilt smearing, width (Ry)=  0.0147
                       cart. coord. in units 2pi/alat
        k(    1) = (   0.0000000   0.0000000   0.0000000), wk =   0.0017361
        k(    2) = (   0.0000000   0.0000000   0.0774922), wk =   0.0034722
        k(    3) = (   0.0000000   0.0000000   0.1549843), wk =   0.0034722
        k(    4) = (   0.0000000   0.0000000   0.2324765), wk =   0.0034722
        k(    5) = (   0.0000000   0.0000000  -0.3099687), wk =   0.0017361
        k(    6) = (   0.0000000   0.0962250   0.0000000), wk =   0.0104167
        k(    7) = (   0.0000000   0.0962250   0.0774922), wk =   0.0208333
        k(    8) = (   0.0000000   0.0962250   0.1549843), wk =   0.0208333
        k(    9) = (   0.0000000   0.0962250   0.2324765), wk =   0.0208333
        k(   10) = (   0.0000000   0.0962250  -0.3099687), wk =   0.0104167
        k(   11) = (   0.0000000   0.1924501   0.0000000), wk =   0.0104167
        k(   12) = (   0.0000000   0.1924501   0.0774922), wk =   0.0208333
        k(   13) = (   0.0000000   0.1924501   0.1549843), wk =   0.0208333
        k(   14) = (   0.0000000   0.1924501   0.2324765), wk =   0.0208333
        k(   15) = (   0.0000000   0.1924501  -0.3099687), wk =   0.0104167
        k(   16) = (   0.0000000   0.2886751   0.0000000), wk =   0.0104167
        k(   17) = (   0.0000000   0.2886751   0.0774922), wk =   0.0208333
        k(   18) = (   0.0000000   0.2886751   0.1549843), wk =   0.0208333
        k(   19) = (   0.0000000   0.2886751   0.2324765), wk =   0.0208333
        k(   20) = (   0.0000000   0.2886751  -0.3099687), wk =   0.0104167
        k(   21) = (   0.0000000   0.3849002   0.0000000), wk =   0.0104167
        k(   22) = (   0.0000000   0.3849002   0.0774922), wk =   0.0208333
        k(   23) = (   0.0000000   0.3849002   0.1549843), wk =   0.0208333
        k(   24) = (   0.0000000   0.3849002   0.2324765), wk =   0.0208333
        k(   25) = (   0.0000000   0.3849002  -0.3099687), wk =   0.0104167
        k(   26) = (   0.0000000   0.4811252   0.0000000), wk =   0.0104167
        k(   27) = (   0.0000000   0.4811252   0.0774922), wk =   0.0208333
        k(   28) = (   0.0000000   0.4811252   0.1549843), wk =   0.0208333
        k(   29) = (   0.0000000   0.4811252   0.2324765), wk =   0.0208333
        k(   30) = (   0.0000000   0.4811252  -0.3099687), wk =   0.0104167
        k(   31) = (   0.0000000  -0.5773503   0.0000000), wk =   0.0052083
        k(   32) = (   0.0000000  -0.5773503   0.0774922), wk =   0.0104167
        k(   33) = (   0.0000000  -0.5773503   0.1549843), wk =   0.0104167
        k(   34) = (   0.0000000  -0.5773503   0.2324765), wk =   0.0104167
        k(   35) = (   0.0000000  -0.5773503  -0.3099687), wk =   0.0052083
        k(   36) = (   0.0833333   0.1443376   0.0000000), wk =   0.0104167
        k(   37) = (   0.0833333   0.1443376   0.0774922), wk =   0.0208333
        k(   38) = (   0.0833333   0.1443376   0.1549843), wk =   0.0208333
        k(   39) = (   0.0833333   0.1443376   0.2324765), wk =   0.0208333
        k(   40) = (   0.0833333   0.1443376  -0.3099687), wk =   0.0104167
        k(   41) = (   0.0833333   0.2405626   0.0000000), wk =   0.0208333
        k(   42) = (   0.0833333   0.2405626   0.0774922), wk =   0.0416667
        k(   43) = (   0.0833333   0.2405626   0.1549843), wk =   0.0416667
        k(   44) = (   0.0833333   0.2405626   0.2324765), wk =   0.0416667
        k(   45) = (   0.0833333   0.2405626  -0.3099687), wk =   0.0208333
        k(   46) = (   0.0833333   0.3367877   0.0000000), wk =   0.0208333
        k(   47) = (   0.0833333   0.3367877   0.0774922), wk =   0.0416667
        k(   48) = (   0.0833333   0.3367877   0.1549843), wk =   0.0416667
        k(   49) = (   0.0833333   0.3367877   0.2324765), wk =   0.0416667
        k(   50) = (   0.0833333   0.3367877  -0.3099687), wk =   0.0208333
        k(   51) = (   0.0833333   0.4330127   0.0000000), wk =   0.0208333
        k(   52) = (   0.0833333   0.4330127   0.0774922), wk =   0.0416667
        k(   53) = (   0.0833333   0.4330127   0.1549843), wk =   0.0416667
        k(   54) = (   0.0833333   0.4330127   0.2324765), wk =   0.0416667
        k(   55) = (   0.0833333   0.4330127  -0.3099687), wk =   0.0208333
        k(   56) = (   0.0833333   0.5292377   0.0000000), wk =   0.0208333
        k(   57) = (   0.0833333   0.5292377   0.0774922), wk =   0.0416667
        k(   58) = (   0.0833333   0.5292377   0.1549843), wk =   0.0416667
        k(   59) = (   0.0833333   0.5292377   0.2324765), wk =   0.0416667
        k(   60) = (   0.0833333   0.5292377  -0.3099687), wk =   0.0208333
        k(   61) = (   0.1666667   0.2886751   0.0000000), wk =   0.0104167
        k(   62) = (   0.1666667   0.2886751   0.0774922), wk =   0.0208333
        k(   63) = (   0.1666667   0.2886751   0.1549843), wk =   0.0208333
        k(   64) = (   0.1666667   0.2886751   0.2324765), wk =   0.0208333
        k(   65) = (   0.1666667   0.2886751  -0.3099687), wk =   0.0104167
        k(   66) = (   0.1666667   0.3849002   0.0000000), wk =   0.0208333
        k(   67) = (   0.1666667   0.3849002   0.0774922), wk =   0.0416667
        k(   68) = (   0.1666667   0.3849002   0.1549843), wk =   0.0416667
        k(   69) = (   0.1666667   0.3849002   0.2324765), wk =   0.0416667
        k(   70) = (   0.1666667   0.3849002  -0.3099687), wk =   0.0208333
        k(   71) = (   0.1666667   0.4811252   0.0000000), wk =   0.0208333
        k(   72) = (   0.1666667   0.4811252   0.0774922), wk =   0.0416667
        k(   73) = (   0.1666667   0.4811252   0.1549843), wk =   0.0416667
        k(   74) = (   0.1666667   0.4811252   0.2324765), wk =   0.0416667
        k(   75) = (   0.1666667   0.4811252  -0.3099687), wk =   0.0208333
        k(   76) = (   0.1666667   0.5773503   0.0000000), wk =   0.0104167
        k(   77) = (   0.1666667   0.5773503   0.0774922), wk =   0.0208333
        k(   78) = (   0.1666667   0.5773503   0.1549843), wk =   0.0208333
        k(   79) = (   0.1666667   0.5773503   0.2324765), wk =   0.0208333
        k(   80) = (   0.1666667   0.5773503  -0.3099687), wk =   0.0104167
        k(   81) = (   0.2500000   0.4330127   0.0000000), wk =   0.0104167
        k(   82) = (   0.2500000   0.4330127   0.0774922), wk =   0.0208333
        k(   83) = (   0.2500000   0.4330127   0.1549843), wk =   0.0208333
        k(   84) = (   0.2500000   0.4330127   0.2324765), wk =   0.0208333
        k(   85) = (   0.2500000   0.4330127  -0.3099687), wk =   0.0104167
        k(   86) = (   0.2500000   0.5292377   0.0000000), wk =   0.0208333
        k(   87) = (   0.2500000   0.5292377   0.0774922), wk =   0.0416667
        k(   88) = (   0.2500000   0.5292377   0.1549843), wk =   0.0416667
        k(   89) = (   0.2500000   0.5292377   0.2324765), wk =   0.0416667
        k(   90) = (   0.2500000   0.5292377  -0.3099687), wk =   0.0208333
        k(   91) = (   0.3333333   0.5773503   0.0000000), wk =   0.0034722
        k(   92) = (   0.3333333   0.5773503   0.0774922), wk =   0.0069444
        k(   93) = (   0.3333333   0.5773503   0.1549843), wk =   0.0069444
        k(   94) = (   0.3333333   0.5773503   0.2324765), wk =   0.0069444
        k(   95) = (   0.3333333   0.5773503  -0.3099687), wk =   0.0034722

                       cryst. coord.
        k(    1) = (   0.0000000   0.0000000   0.0000000), wk =   0.0017361
        k(    2) = (   0.0000000   0.0000000   0.1250000), wk =   0.0034722
        k(    3) = (   0.0000000   0.0000000   0.2500000), wk =   0.0034722
        k(    4) = (   0.0000000   0.0000000   0.3750000), wk =   0.0034722
        k(    5) = (   0.0000000   0.0000000  -0.5000000), wk =   0.0017361
        k(    6) = (   0.0000000   0.0833333   0.0000000), wk =   0.0104167
        k(    7) = (   0.0000000   0.0833333   0.1250000), wk =   0.0208333
        k(    8) = (   0.0000000   0.0833333   0.2500000), wk =   0.0208333
        k(    9) = (   0.0000000   0.0833333   0.3750000), wk =   0.0208333
        k(   10) = (   0.0000000   0.0833333  -0.5000000), wk =   0.0104167
        k(   11) = (   0.0000000   0.1666667   0.0000000), wk =   0.0104167
        k(   12) = (   0.0000000   0.1666667   0.1250000), wk =   0.0208333
        k(   13) = (   0.0000000   0.1666667   0.2500000), wk =   0.0208333
        k(   14) = (   0.0000000   0.1666667   0.3750000), wk =   0.0208333
        k(   15) = (   0.0000000   0.1666667  -0.5000000), wk =   0.0104167
        k(   16) = (   0.0000000   0.2500000   0.0000000), wk =   0.0104167
        k(   17) = (   0.0000000   0.2500000   0.1250000), wk =   0.0208333
        k(   18) = (   0.0000000   0.2500000   0.2500000), wk =   0.0208333
        k(   19) = (   0.0000000   0.2500000   0.3750000), wk =   0.0208333
        k(   20) = (   0.0000000   0.2500000  -0.5000000), wk =   0.0104167
        k(   21) = (   0.0000000   0.3333333   0.0000000), wk =   0.0104167
        k(   22) = (   0.0000000   0.3333333   0.1250000), wk =   0.0208333
        k(   23) = (   0.0000000   0.3333333   0.2500000), wk =   0.0208333
        k(   24) = (   0.0000000   0.3333333   0.3750000), wk =   0.0208333
        k(   25) = (   0.0000000   0.3333333  -0.5000000), wk =   0.0104167
        k(   26) = (   0.0000000   0.4166667   0.0000000), wk =   0.0104167
        k(   27) = (   0.0000000   0.4166667   0.1250000), wk =   0.0208333
        k(   28) = (   0.0000000   0.4166667   0.2500000), wk =   0.0208333
        k(   29) = (   0.0000000   0.4166667   0.3750000), wk =   0.0208333
        k(   30) = (   0.0000000   0.4166667  -0.5000000), wk =   0.0104167
        k(   31) = (   0.0000000  -0.5000000   0.0000000), wk =   0.0052083
        k(   32) = (   0.0000000  -0.5000000   0.1250000), wk =   0.0104167
        k(   33) = (   0.0000000  -0.5000000   0.2500000), wk =   0.0104167
        k(   34) = (   0.0000000  -0.5000000   0.3750000), wk =   0.0104167
        k(   35) = (   0.0000000  -0.5000000  -0.5000000), wk =   0.0052083
        k(   36) = (   0.0833333   0.0833333   0.0000000), wk =   0.0104167
        k(   37) = (   0.0833333   0.0833333   0.1250000), wk =   0.0208333
        k(   38) = (   0.0833333   0.0833333   0.2500000), wk =   0.0208333
        k(   39) = (   0.0833333   0.0833333   0.3750000), wk =   0.0208333
        k(   40) = (   0.0833333   0.0833333  -0.5000000), wk =   0.0104167
        k(   41) = (   0.0833333   0.1666667   0.0000000), wk =   0.0208333
        k(   42) = (   0.0833333   0.1666667   0.1250000), wk =   0.0416667
        k(   43) = (   0.0833333   0.1666667   0.2500000), wk =   0.0416667
        k(   44) = (   0.0833333   0.1666667   0.3750000), wk =   0.0416667
        k(   45) = (   0.0833333   0.1666667  -0.5000000), wk =   0.0208333
        k(   46) = (   0.0833333   0.2500000   0.0000000), wk =   0.0208333
        k(   47) = (   0.0833333   0.2500000   0.1250000), wk =   0.0416667
        k(   48) = (   0.0833333   0.2500000   0.2500000), wk =   0.0416667
        k(   49) = (   0.0833333   0.2500000   0.3750000), wk =   0.0416667
        k(   50) = (   0.0833333   0.2500000  -0.5000000), wk =   0.0208333
        k(   51) = (   0.0833333   0.3333333   0.0000000), wk =   0.0208333
        k(   52) = (   0.0833333   0.3333333   0.1250000), wk =   0.0416667
        k(   53) = (   0.0833333   0.3333333   0.2500000), wk =   0.0416667
        k(   54) = (   0.0833333   0.3333333   0.3750000), wk =   0.0416667
        k(   55) = (   0.0833333   0.3333333  -0.5000000), wk =   0.0208333
        k(   56) = (   0.0833333   0.4166667   0.0000000), wk =   0.0208333
        k(   57) = (   0.0833333   0.4166667   0.1250000), wk =   0.0416667
        k(   58) = (   0.0833333   0.4166667   0.2500000), wk =   0.0416667
        k(   59) = (   0.0833333   0.4166667   0.3750000), wk =   0.0416667
        k(   60) = (   0.0833333   0.4166667  -0.5000000), wk =   0.0208333
        k(   61) = (   0.1666667   0.1666667   0.0000000), wk =   0.0104167
        k(   62) = (   0.1666667   0.1666667   0.1250000), wk =   0.0208333
        k(   63) = (   0.1666667   0.1666667   0.2500000), wk =   0.0208333
        k(   64) = (   0.1666667   0.1666667   0.3750000), wk =   0.0208333
        k(   65) = (   0.1666667   0.1666667  -0.5000000), wk =   0.0104167
        k(   66) = (   0.1666667   0.2500000   0.0000000), wk =   0.0208333
        k(   67) = (   0.1666667   0.2500000   0.1250000), wk =   0.0416667
        k(   68) = (   0.1666667   0.2500000   0.2500000), wk =   0.0416667
        k(   69) = (   0.1666667   0.2500000   0.3750000), wk =   0.0416667
        k(   70) = (   0.1666667   0.2500000  -0.5000000), wk =   0.0208333
        k(   71) = (   0.1666667   0.3333333   0.0000000), wk =   0.0208333
        k(   72) = (   0.1666667   0.3333333   0.1250000), wk =   0.0416667
        k(   73) = (   0.1666667   0.3333333   0.2500000), wk =   0.0416667
        k(   74) = (   0.1666667   0.3333333   0.3750000), wk =   0.0416667
        k(   75) = (   0.1666667   0.3333333  -0.5000000), wk =   0.0208333
        k(   76) = (   0.1666667   0.4166667   0.0000000), wk =   0.0104167
        k(   77) = (   0.1666667   0.4166667   0.1250000), wk =   0.0208333
        k(   78) = (   0.1666667   0.4166667   0.2500000), wk =   0.0208333
        k(   79) = (   0.1666667   0.4166667   0.3750000), wk =   0.0208333
        k(   80) = (   0.1666667   0.4166667  -0.5000000), wk =   0.0104167
        k(   81) = (   0.2500000   0.2500000   0.0000000), wk =   0.0104167
        k(   82) = (   0.2500000   0.2500000   0.1250000), wk =   0.0208333
        k(   83) = (   0.2500000   0.2500000   0.2500000), wk =   0.0208333
        k(   84) = (   0.2500000   0.2500000   0.3750000), wk =   0.0208333
        k(   85) = (   0.2500000   0.2500000  -0.5000000), wk =   0.0104167
        k(   86) = (   0.2500000   0.3333333   0.0000000), wk =   0.0208333
        k(   87) = (   0.2500000   0.3333333   0.1250000), wk =   0.0416667
        k(   88) = (   0.2500000   0.3333333   0.2500000), wk =   0.0416667
        k(   89) = (   0.2500000   0.3333333   0.3750000), wk =   0.0416667
        k(   90) = (   0.2500000   0.3333333  -0.5000000), wk =   0.0208333
        k(   91) = (   0.3333333   0.3333333   0.0000000), wk =   0.0034722
        k(   92) = (   0.3333333   0.3333333   0.1250000), wk =   0.0069444
        k(   93) = (   0.3333333   0.3333333   0.2500000), wk =   0.0069444
        k(   94) = (   0.3333333   0.3333333   0.3750000), wk =   0.0069444
        k(   95) = (   0.3333333   0.3333333  -0.5000000), wk =   0.0034722

     Dense  grid:    45797 G-vectors     FFT dimensions: (  40,  40,  72)

     Smooth grid:    16215 G-vectors     FFT dimensions: (  30,  30,  48)

     Dynamical RAM for                 wfc:       0.96 MB

     Dynamical RAM for     wfc (w. buffer):      92.05 MB

     Dynamical RAM for           str. fact:       1.40 MB

     Dynamical RAM for           local pot:       0.00 MB

     Dynamical RAM for          nlocal pot:       1.61 MB

     Dynamical RAM for                qrad:       3.21 MB

     Dynamical RAM for          rho,v,vnew:       4.73 MB

     Dynamical RAM for               rhoin:       1.58 MB

     Dynamical RAM for            rho*nmix:      11.18 MB

     Dynamical RAM for           G-vectors:       2.74 MB

     Dynamical RAM for          h,s,v(r/c):       0.18 MB

     Dynamical RAM for          <psi|beta>:       0.02 MB

     Dynamical RAM for                 psi:       1.92 MB

     Dynamical RAM for                hpsi:       1.92 MB

     Dynamical RAM for                spsi:       1.92 MB

     Dynamical RAM for      wfcinit/wfcrot:       2.13 MB

     Dynamical RAM for           addusdens:     131.38 MB

     Dynamical RAM for          addusforce:     133.13 MB

     Dynamical RAM for         addusstress:     140.46 MB

     Estimated static dynamical RAM per process >     113.81 MB

     Estimated max dynamical RAM per process >     265.45 MB

     Check: negative core charge=   -0.000003

     Initial potential from superposition of free atoms

     starting charge      51.9997, renormalised to      52.0000
     Starting wfcs are   34 randomized atomic wfcs
     Checking if some PAW data can be deallocated... 

     total cpu time spent up to now is        9.3 secs

     Self-consistent Calculation

     iteration #  1     ecut=    50.00 Ry     beta= 0.40
     Davidson diagonalization with overlap

---- Real-time Memory Report at c_bands before calling an iterative solver
           187 MiB given to the printing process from OS
             0 MiB allocation reported by mallinfo(arena+hblkhd)
          4672 MiB available memory on the node where the printing process lives
------------------
     ethr =  1.00E-02,  avg # of iterations =  2.9

     total cpu time spent up to now is       31.8 secs

     total energy              =   -1006.31303330 Ry
     estimated scf accuracy    <       0.87498969 Ry

     iteration #  2     ecut=    50.00 Ry     beta= 0.40
     Davidson diagonalization with overlap

---- Real-time Memory Report at c_bands before calling an iterative solver
           312 MiB given to the printing process from OS
             0 MiB allocation reported by mallinfo(arena+hblkhd)
          4620 MiB available memory on the node where the printing process lives
------------------
     ethr =  1.68E-03,  avg # of iterations =  2.0

     total cpu time spent up to now is       53.3 secs

     WARNING: integrated charge=    52.00057455, expected=    52.00000000

     total energy              =   -1006.55246640 Ry
     estimated scf accuracy    <       0.12245727 Ry

     iteration #  3     ecut=    50.00 Ry     beta= 0.40
     Davidson diagonalization with overlap

---- Real-time Memory Report at c_bands before calling an iterative solver
           313 MiB given to the printing process from OS
             0 MiB allocation reported by mallinfo(arena+hblkhd)
          4618 MiB available memory on the node where the printing process lives
------------------
     ethr =  2.35E-04,  avg # of iterations =  2.2

     total cpu time spent up to now is       74.7 secs

     WARNING: integrated charge=    52.00038912, expected=    52.00000000

     total energy              =   -1006.57025443 Ry
     estimated scf accuracy    <       0.00979929 Ry

     iteration #  4     ecut=    50.00 Ry     beta= 0.40
     Davidson diagonalization with overlap

---- Real-time Memory Report at c_bands before calling an iterative solver
           313 MiB given to the printing process from OS
             0 MiB allocation reported by mallinfo(arena+hblkhd)
          4614 MiB available memory on the node where the printing process lives
------------------
     ethr =  1.88E-05,  avg # of iterations =  3.8

     total cpu time spent up to now is       96.3 secs

     WARNING: integrated charge=    52.00022115, expected=    52.00000000

     total energy              =   -1006.57064247 Ry
     estimated scf accuracy    <       0.00161040 Ry

     iteration #  5     ecut=    50.00 Ry     beta= 0.40
     Davidson diagonalization with overlap

---- Real-time Memory Report at c_bands before calling an iterative solver
           314 MiB given to the printing process from OS
             0 MiB allocation reported by mallinfo(arena+hblkhd)
          4613 MiB available memory on the node where the printing process lives
------------------
     ethr =  3.10E-06,  avg # of iterations =  2.9

     total cpu time spent up to now is      116.8 secs

     WARNING: integrated charge=    52.00020415, expected=    52.00000000

     total energy              =   -1006.57072582 Ry
     estimated scf accuracy    <       0.00004350 Ry

     iteration #  6     ecut=    50.00 Ry     beta= 0.40
     Davidson diagonalization with overlap

---- Real-time Memory Report at c_bands before calling an iterative solver
           314 MiB given to the printing process from OS
             0 MiB allocation reported by mallinfo(arena+hblkhd)
          4612 MiB available memory on the node where the printing process lives
------------------
     ethr =  8.37E-08,  avg # of iterations =  3.0

     total cpu time spent up to now is      140.7 secs

     WARNING: integrated charge=    52.00018333, expected=    52.00000000

     total energy              =   -1006.57072717 Ry
     estimated scf accuracy    <       0.00007041 Ry

     iteration #  7     ecut=    50.00 Ry     beta= 0.40
     Davidson diagonalization with overlap

---- Real-time Memory Report at c_bands before calling an iterative solver
           315 MiB given to the printing process from OS
             0 MiB allocation reported by mallinfo(arena+hblkhd)
          4611 MiB available memory on the node where the printing process lives
------------------
     ethr =  8.37E-08,  avg # of iterations =  2.0

     total cpu time spent up to now is      163.1 secs

     WARNING: integrated charge=    52.00017795, expected=    52.00000000

     total energy              =   -1006.57074880 Ry
     estimated scf accuracy    <       0.00000012 Ry

     iteration #  8     ecut=    50.00 Ry     beta= 0.40
     Davidson diagonalization with overlap

---- Real-time Memory Report at c_bands before calling an iterative solver
           315 MiB given to the printing process from OS
             0 MiB allocation reported by mallinfo(arena+hblkhd)
          4609 MiB available memory on the node where the printing process lives
------------------
     ethr =  2.28E-10,  avg # of iterations =  4.0

     total cpu time spent up to now is      193.8 secs

     WARNING: integrated charge=    52.00017815, expected=    52.00000000

     total energy              =   -1006.57074901 Ry
     estimated scf accuracy    <       0.00000088 Ry

     iteration #  9     ecut=    50.00 Ry     beta= 0.40
     Davidson diagonalization with overlap

---- Real-time Memory Report at c_bands before calling an iterative solver
           316 MiB given to the printing process from OS
             0 MiB allocation reported by mallinfo(arena+hblkhd)
          4607 MiB available memory on the node where the printing process lives
------------------
     ethr =  2.28E-10,  avg # of iterations =  2.8

     total cpu time spent up to now is      216.6 secs

     WARNING: integrated charge=    52.00017873, expected=    52.00000000

     total energy              =   -1006.57074871 Ry
     estimated scf accuracy    <       0.00000011 Ry

     iteration # 10     ecut=    50.00 Ry     beta= 0.40
     Davidson diagonalization with overlap

---- Real-time Memory Report at c_bands before calling an iterative solver
           316 MiB given to the printing process from OS
             0 MiB allocation reported by mallinfo(arena+hblkhd)
          4607 MiB available memory on the node where the printing process lives
------------------
     ethr =  2.03E-10,  avg # of iterations =  2.0

     total cpu time spent up to now is      237.3 secs

     End of self-consistent calculation

          k = 0.0000 0.0000 0.0000 (  1985 PWs)   bands (ev):

  -115.4413-115.4412 -69.6391 -69.6365 -69.6340 -69.6340 -69.6334 -69.6334
    -9.7202  -9.0754   2.4658   2.4658   2.5035   2.6410   2.6410   2.7123
     3.4802   3.4802   3.6642   3.6642   3.9290   7.2036   7.2036   7.8639
     7.9355   7.9355   8.6480  12.9676  15.9537  20.5827  20.5827

     occupation numbers 
     1.0000   1.0000   1.0000   1.0000   1.0000   1.0000   1.0000   1.0000
     1.0000   1.0000   1.0000   1.0000   1.0000   1.0000   1.0000   1.0000
     1.0000   1.0000   1.0000   1.0000   1.0000   1.0000   1.0000   1.0008
     1.0037   1.0037   0.0612   0.0000   0.0000   0.0000   0.0000

          k = 0.0000 0.0000 0.0775 (  1991 PWs)   bands (ev):

  -115.4413-115.4412 -69.6390 -69.6366 -69.6340 -69.6340 -69.6334 -69.6334
    -9.6969  -9.1012   2.4694   2.4694   2.4803   2.6180   2.6308   2.6308
     3.4898   3.4898   3.6601   3.6601   4.1244   7.2320   7.2320   7.4849
     7.9084   7.9084   9.0735  12.8374  16.0713  20.5852  20.5853

     occupation numbers 
     1.0000   1.0000   1.0000   1.0000   1.0000   1.0000   1.0000   1.0000
     1.0000   1.0000   1.0000   1.0000   1.0000   1.0000   1.0000   1.0000
     1.0000   1.0000   1.0000   1.0000   1.0000   1.0000   1.0000   1.0000
     1.0021   1.0021   0.0000   0.0000   0.0000   0.0000   0.0000

          k = 0.0000 0.0000 0.1550 (  1991 PWs)   bands (ev):

  -115.4413-115.4412 -69.6387 -69.6368 -69.6340 -69.6340 -69.6335 -69.6335
    -9.6298  -9.1740   2.4217   2.4583   2.4808   2.4808   2.6036   2.6036
     3.5161   3.5161   3.6471   3.6471   4.5752   6.9045   7.3129   7.3129
     7.8307   7.8307   9.7771  12.4722  16.4182  19.9424  20.6100

     occupation numbers 
     1.0000   1.0000   1.0000   1.0000   1.0000   1.0000   1.0000   1.0000
     1.0000   1.0000   1.0000   1.0000   1.0000   1.0000   1.0000   1.0000
     1.0000   1.0000   1.0000   1.0000   1.0000   1.0000   1.0000   1.0000
     1.0003   1.0003   0.0000   0.0000   0.0000   0.0000   0.0000

          k = 0.0000 0.0000 0.2325 (  1990 PWs)   bands (ev):

  -115.4413-115.4412 -69.6383 -69.6372 -69.6339 -69.6339 -69.6336 -69.6336
    -9.5281  -9.2815   2.3516   2.3570   2.5014   2.5014   2.5675   2.5675
     3.5525   3.5525   3.6237   3.6237   5.1302   6.3134   7.4332   7.4333
     7.7136   7.7136  10.5259  11.9269  16.9888  18.7894  20.6925

     occupation numbers 
     1.0000   1.0000   1.0000   1.0000   1.0000   1.0000   1.0000   1.0000
     1.0000   1.0000   1.0000   1.0000   1.0000   1.0000   1.0000   1.0000
     1.0000   1.0000   1.0000   1.0000   1.0000   1.0000   1.0000   1.0000
     1.0000   1.0000   0.0000   0.0000   0.0000   0.0000   0.0000

          k = 0.0000 0.0000-0.3100 (  2002 PWs)   bands (ev):

  -115.4413-115.4413 -69.6378 -69.6378 -69.6338 -69.6338 -69.6338 -69.6338
    -9.4060  -9.4060   2.3229   2.3229   2.5313   2.5313   2.5313   2.5313
     3.5907   3.5907   3.5907   3.5907   5.7196   5.7196   7.5741   7.5741
     7.5741   7.5741  11.2598  11.2598  17.7838  17.7838  20.8582

     occupation numbers 
     1.0000   1.0000   1.0000   1.0000   1.0000   1.0000   1.0000   1.0000
     1.0000   1.0000   1.0000   1.0000   1.0000   1.0000   1.0000   1.0000
     1.0000   1.0000   1.0000   1.0000   1.0000   1.0000   1.0000   1.0000
     1.0000   1.0000   0.0000   0.0000   0.0000   0.0000   0.0000

          k = 0.0000 0.0962 0.0000 (  2014 PWs)   bands (ev):

  -115.4413-115.4412 -69.6391 -69.6366 -69.6342 -69.6341 -69.6337 -69.6335
    -9.6856  -9.0599   2.4302   2.4862   2.5270   2.6381   2.6696   2.7597
     3.4663   3.4781   3.6672   3.6988   3.9214   6.9560   7.1163   7.4454
     7.8218   7.8893   9.2231  13.2489  15.9585  19.8532  20.6393

     occupation numbers 
     1.0000   1.0000   1.0000   1.0000   1.0000   1.0000   1.0000   1.0000
     1.0000   1.0000   1.0000   1.0000   1.0000   1.0000   1.0000   1.0000
     1.0000   1.0000   1.0000   1.0000   1.0000   1.0000   1.0000   1.0000
     1.0003   1.0014   0.0000   0.0000   0.0000   0.0000   0.0000

          k = 0.0000 0.0962 0.0775 (  2015 PWs)   bands (ev):

  -115.4413-115.4412 -69.6390 -69.6367 -69.6342 -69.6341 -69.6337 -69.6336
    -9.6629  -9.0847   2.4191   2.4901   2.5176   2.6007   2.6591   2.6866
     3.4773   3.4876   3.6627   3.6800   4.1349   6.9831   7.1465   7.2387
     7.7951   7.8606   9.4787  13.1070  16.0787  19.8728  20.6422

     occupation numbers 
     1.0000   1.0000   1.0000   1.0000   1.0000   1.0000   1.0000   1.0000
     1.0000   1.0000   1.0000   1.0000   1.0000   1.0000   1.0000   1.0000
     1.0000   1.0000   1.0000   1.0000   1.0000   1.0000   1.0000   1.0000
     1.0001   1.0007   0.0000   0.0000   0.0000   0.0000   0.0000

          k = 0.0000 0.0962 0.1550 (  2010 PWs)   bands (ev):

  -115.4413-115.4412 -69.6387 -69.6368 -69.6341 -69.6341 -69.6338 -69.6336
    -9.5975  -9.1551   2.3792   2.4522   2.5025   2.5173   2.6302   2.6311
     3.5071   3.5139   3.6485   3.6574   4.5961   6.7778   7.0913   7.2321
     7.7019   7.7787  10.0568  12.7169  16.4272  19.7613  20.1471

     occupation numbers 
     1.0000   1.0000   1.0000   1.0000   1.0000   1.0000   1.0000   1.0000
     1.0000   1.0000   1.0000   1.0000   1.0000   1.0000   1.0000   1.0000
     1.0000   1.0000   1.0000   1.0000   1.0000   1.0000   1.0000   1.0000
     1.0000   1.0001   0.0000   0.0000   0.0000   0.0000   0.0000

          k = 0.0000 0.0962 0.2325 (  2002 PWs)   bands (ev):

  -115.4413-115.4412 -69.6383 -69.6373 -69.6340 -69.6340 -69.6338 -69.6337
    -9.4986  -9.2592   2.3260   2.3401   2.5245   2.5273   2.5902   2.5937
     3.5479   3.5505   3.6237   3.6286   5.1467   6.2662   7.2239   7.3593
     7.5573   7.6551  10.7543  12.1495  16.9911  18.7467  20.1791

     occupation numbers 
     1.0000   1.0000   1.0000   1.0000   1.0000   1.0000   1.0000   1.0000
     1.0000   1.0000   1.0000   1.0000   1.0000   1.0000   1.0000   1.0000
     1.0000   1.0000   1.0000   1.0000   1.0000   1.0000   1.0000   1.0000
     1.0000   1.0000   0.0000   0.0000   0.0000   0.0000   0.0000

          k = 0.0000 0.0962-0.3100 (  2004 PWs)   bands (ev):

  -115.4413-115.4413 -69.6378 -69.6378 -69.6339 -69.6339 -69.6338 -69.6338
    -9.3799  -9.3799   2.3017   2.3017   2.5540   2.5540   2.5559   2.5559
     3.5895   3.5895   3.5908   3.5908   5.7153   5.7153   7.3886   7.3886
     7.5080   7.5080  11.4741  11.4741  17.7695  17.7695  20.3915

     occupation numbers 
     1.0000   1.0000   1.0000   1.0000   1.0000   1.0000   1.0000   1.0000
     1.0000   1.0000   1.0000   1.0000   1.0000   1.0000   1.0000   1.0000
     1.0000   1.0000   1.0000   1.0000   1.0000   1.0000   1.0000   1.0000
     1.0000   1.0000   0.0000   0.0000   0.0000   0.0000   0.0000

          k = 0.0000 0.1925 0.0000 (  2014 PWs)   bands (ev):

  -115.4413-115.4412 -69.6389 -69.6367 -69.6345 -69.6342 -69.6341 -69.6336
    -9.5883  -9.0185   2.3504   2.5397   2.5641   2.6501   2.7520   2.8970
     3.4289   3.4792   3.6743   3.8065   3.8998   6.3163   6.8262   6.8796
     7.6908   7.7587  10.1126  13.9346  15.9693  18.5749  20.1805

     occupation numbers 
     1.0000   1.0000   1.0000   1.0000   1.0000   1.0000   1.0000   1.0000
     1.0000   1.0000   1.0000   1.0000   1.0000   1.0000   1.0000   1.0000
     1.0000   1.0000   1.0000   1.0000   1.0000   1.0000   1.0000   1.0000
     1.0000   1.0000   0.0000   0.0000   0.0000   0.0000   0.0000

          k = 0.0000 0.1925 0.0775 (  2014 PWs)   bands (ev):

  -115.4413-115.4412 -69.6388 -69.6368 -69.6345 -69.6342 -69.6341 -69.6336
    -9.5673  -9.0408   2.3363   2.5411   2.5448   2.6247   2.7405   2.8093
     3.4451   3.4883   3.6687   3.7299   4.1769   6.3439   6.7394   6.9142
     7.6492   7.7263  10.2678  13.7568  16.0962  18.6060  20.0970

     occupation numbers 
     1.0000   1.0000   1.0000   1.0000   1.0000   1.0000   1.0000   1.0000
     1.0000   1.0000   1.0000   1.0000   1.0000   1.0000   1.0000   1.0000
     1.0000   1.0000   1.0000   1.0000   1.0000   1.0000   1.0000   1.0000
     1.0000   1.0000   0.0000   0.0000   0.0000   0.0000   0.0000

          k = 0.0000 0.1925 0.1550 (  2006 PWs)   bands (ev):

  -115.4413-115.4412 -69.6386 -69.6369 -69.6344 -69.6341 -69.6341 -69.6337
    -9.5071  -9.1041   2.2983   2.4348   2.5605   2.5919   2.7094   2.7108
     3.4854   3.5135   3.6519   3.6853   4.6529   6.3345   6.6187   7.0123
     7.5076   7.6335  10.6920  13.2969  16.4383  18.6398  19.7737

     occupation numbers 
     1.0000   1.0000   1.0000   1.0000   1.0000   1.0000   1.0000   1.0000
     1.0000   1.0000   1.0000   1.0000   1.0000   1.0000   1.0000   1.0000
     1.0000   1.0000   1.0000   1.0000   1.0000   1.0000   1.0000   1.0000
     1.0000   1.0000   0.0000   0.0000   0.0000   0.0000   0.0000

          k = 0.0000 0.1925 0.2325 (  2005 PWs)   bands (ev):

  -115.4413-115.4412 -69.6382 -69.6374 -69.6343 -69.6341 -69.6340 -69.6338
    -9.4162  -9.1981   2.2582   2.3118   2.5874   2.5932   2.6554   2.6674
     3.5383   3.5492   3.6243   3.6433   5.1712   6.0585   6.7503   7.1576
     7.2726   7.4935  11.2939  12.6745  16.9554  18.3324  19.4740

     occupation numbers 
     1.0000   1.0000   1.0000   1.0000   1.0000   1.0000   1.0000   1.0000
     1.0000   1.0000   1.0000   1.0000   1.0000   1.0000   1.0000   1.0000
     1.0000   1.0000   1.0000   1.0000   1.0000   1.0000   1.0000   1.0000
     1.0000   1.0000   0.0000   0.0000   0.0000   0.0000   0.0000

          k = 0.0000 0.1925-0.3100 (  2000 PWs)   bands (ev):

  -115.4412-115.4412 -69.6378 -69.6378 -69.6342 -69.6342 -69.6339 -69.6339
    -9.3078  -9.3078   2.2529   2.2529   2.6165   2.6165   2.6243   2.6243
     3.5884   3.5884   3.5935   3.5935   5.6532   5.6532   6.9976   6.9976
     7.3266   7.3266  11.9812  11.9812  17.6252  17.6252  19.6324

     occupation numbers 
     1.0000   1.0000   1.0000   1.0000   1.0000   1.0000   1.0000   1.0000
     1.0000   1.0000   1.0000   1.0000   1.0000   1.0000   1.0000   1.0000
     1.0000   1.0000   1.0000   1.0000   1.0000   1.0000   1.0000   1.0000
     1.0000   1.0000   0.0000   0.0000   0.0000   0.0000   0.0000

          k = 0.0000 0.2887 0.0000 (  2016 PWs)   bands (ev):

  -115.4413-115.4412 -69.6387 -69.6368 -69.6349 -69.6346 -69.6343 -69.6337
    -9.4473  -8.9663   2.2720   2.5644   2.6051   2.7323   2.8765   3.0801
     3.3856   3.4994   3.6828   3.8723   3.9877   5.5553   6.2458   6.5544
     7.4705   7.5717  11.0749  14.6988  15.9603  17.4029  19.2297

     occupation numbers 
     1.0000   1.0000   1.0000   1.0000   1.0000   1.0000   1.0000   1.0000
     1.0000   1.0000   1.0000   1.0000   1.0000   1.0000   1.0000   1.0000
     1.0000   1.0000   1.0000   1.0000   1.0000   1.0000   1.0000   1.0000
     1.0000   1.0000   0.0000   0.0000   0.0000   0.0000   0.0000

          k = 0.0000 0.2887 0.0775 (  2021 PWs)   bands (ev):

  -115.4413-115.4412 -69.6386 -69.6369 -69.6349 -69.6346 -69.6343 -69.6337
    -9.4292  -8.9846   2.2577   2.5270   2.6125   2.7183   2.8626   2.9714
     3.4119   3.5069   3.6762   3.7813   4.2711   5.6010   6.1929   6.5953
     7.4514   7.5345  11.1692  14.4632  16.0954  17.4430  19.1966

     occupation numbers 
     1.0000   1.0000   1.0000   1.0000   1.0000   1.0000   1.0000   1.0000
     1.0000   1.0000   1.0000   1.0000   1.0000   1.0000   1.0000   1.0000
     1.0000   1.0000   1.0000   1.0000   1.0000   1.0000   1.0000   1.0000
     1.0000   1.0000   0.0000   0.0000   0.0000   0.0000   0.0000

          k = 0.0000 0.2887 0.1550 (  2027 PWs)   bands (ev):

  -115.4413-115.4412 -69.6385 -69.6371 -69.6349 -69.6346 -69.6343 -69.6339
    -9.3773  -9.0369   2.2226   2.4125   2.6349   2.6939   2.8251   2.8331
     3.4671   3.5280   3.6572   3.7225   4.7041   5.6914   6.1272   6.7106
     7.3440   7.4281  11.4604  13.9194  16.3932  17.5179  19.0749

     occupation numbers 
     1.0000   1.0000   1.0000   1.0000   1.0000   1.0000   1.0000   1.0000
     1.0000   1.0000   1.0000   1.0000   1.0000   1.0000   1.0000   1.0000
     1.0000   1.0000   1.0000   1.0000   1.0000   1.0000   1.0000   1.0000
     1.0000   1.0000   0.0000   0.0000   0.0000   0.0000   0.0000

          k = 0.0000 0.2887 0.2325 (  2020 PWs)   bands (ev):

  -115.4413-115.4412 -69.6381 -69.6374 -69.6348 -69.6346 -69.6342 -69.6340
    -9.2995  -9.1152   2.1930   2.2811   2.6714   2.6891   2.7554   2.7737
     3.5348   3.5588   3.6286   3.6673   5.0959   5.6184   6.3184   6.8798
     7.0880   7.2674  11.9421  13.2514  16.7707  17.4704  19.0128

     occupation numbers 
     1.0000   1.0000   1.0000   1.0000   1.0000   1.0000   1.0000   1.0000
     1.0000   1.0000   1.0000   1.0000   1.0000   1.0000   1.0000   1.0000
     1.0000   1.0000   1.0000   1.0000   1.0000   1.0000   1.0000   1.0000
     1.0000   1.0000   0.0000   0.0000   0.0000   0.0000   0.0000

          k = 0.0000 0.2887-0.3100 (  2014 PWs)   bands (ev):

  -115.4412-115.4412 -69.6378 -69.6378 -69.6347 -69.6346 -69.6341 -69.6341
    -9.2074  -9.2074   2.2043   2.2043   2.7102   2.7102   2.7195   2.7195
     3.5942   3.5942   3.6040   3.6041   5.3968   5.3968   6.7085   6.7085
     7.0754   7.0754  12.5645  12.5645  17.1754  17.1754  19.2560

     occupation numbers 
     1.0000   1.0000   1.0000   1.0000   1.0000   1.0000   1.0000   1.0000
     1.0000   1.0000   1.0000   1.0000   1.0000   1.0000   1.0000   1.0000
     1.0000   1.0000   1.0000   1.0000   1.0000   1.0000   1.0000   1.0000
     1.0000   1.0000   0.0000   0.0000   0.0000   0.0000   0.0000

          k = 0.0000 0.3849 0.0000 (  2014 PWs)   bands (ev):

  -115.4413-115.4412 -69.6383 -69.6370 -69.6353 -69.6351 -69.6344 -69.6338
    -9.2925  -8.9233   2.2432   2.5521   2.6581   2.8637   3.0181   3.1685
     3.4165   3.5463   3.6923   3.8704   4.1820   4.9034   5.7209   6.2178
     7.1767   7.3750  12.0522  15.2228  15.7805  16.5473  18.6320

     occupation numbers 
     1.0000   1.0000   1.0000   1.0000   1.0000   1.0000   1.0000   1.0000
     1.0000   1.0000   1.0000   1.0000   1.0000   1.0000   1.0000   1.0000
     1.0000   1.0000   1.0000   1.0000   1.0000   1.0000   1.0000   1.0000
     1.0000   1.0000   0.0000   0.0000   0.0000   0.0000   0.0000

          k = 0.0000 0.3849 0.0775 (  2025 PWs)   bands (ev):

  -115.4412-115.4412 -69.6384 -69.6370 -69.6353 -69.6351 -69.6345 -69.6339
    -9.2781  -8.9369   2.2272   2.5093   2.6687   2.8491   3.0006   3.0828
     3.4323   3.5511   3.6852   3.8226   4.3459   4.9869   5.7026   6.2659
     7.1902   7.3333  12.0930  14.9115  15.9700  16.5808  18.6295

     occupation numbers 
     1.0000   1.0000   1.0000   1.0000   1.0000   1.0000   1.0000   1.0000
     1.0000   1.0000   1.0000   1.0000   1.0000   1.0000   1.0000   1.0000
     1.0000   1.0000   1.0000   1.0000   1.0000   1.0000   1.0000   1.0000
     1.0000   1.0000   0.0000   0.0000   0.0000   0.0000   0.0000

          k = 0.0000 0.3849 0.1550 (  2034 PWs)   bands (ev):

  -115.4413-115.4412 -69.6383 -69.6373 -69.6353 -69.6350 -69.6344 -69.6340
    -9.2370  -8.9756   2.1899   2.3917   2.7001   2.8211   2.9528   2.9535
     3.4849   3.5651   3.6663   3.7625   4.5800   5.1300   5.7887   6.4001
     7.1639   7.2139  12.2482  14.3368  16.2233  16.6601  18.6208

     occupation numbers 
     1.0000   1.0000   1.0000   1.0000   1.0000   1.0000   1.0000   1.0000
     1.0000   1.0000   1.0000   1.0000   1.0000   1.0000   1.0000   1.0000
     1.0000   1.0000   1.0000   1.0000   1.0000   1.0000   1.0000   1.0000
     1.0000   1.0000   0.0000   0.0000   0.0000   0.0000   0.0000

          k = 0.0000 0.3849 0.2325 (  2033 PWs)   bands (ev):

  -115.4412-115.4412 -69.6381 -69.6376 -69.6352 -69.6351 -69.6343 -69.6341
    -9.1760  -9.0344   2.1612   2.2594   2.7503   2.8095   2.8719   2.8863
     3.5559   3.5865   3.6405   3.6996   4.7699   5.0857   6.1704   6.5947
     6.9880   7.0335  12.5747  13.6944  16.4381  16.6969  18.7452

     occupation numbers 
     1.0000   1.0000   1.0000   1.0000   1.0000   1.0000   1.0000   1.0000
     1.0000   1.0000   1.0000   1.0000   1.0000   1.0000   1.0000   1.0000
     1.0000   1.0000   1.0000   1.0000   1.0000   1.0000   1.0000   1.0000
     1.0000   1.0000   0.0000   0.0000   0.0000   0.0000   0.0000

          k = 0.0000 0.3849-0.3100 (  2032 PWs)   bands (ev):

  -115.4412-115.4412 -69.6378 -69.6378 -69.6351 -69.6351 -69.6342 -69.6342
    -9.1047  -9.1047   2.1774   2.1774   2.8150   2.8150   2.8264   2.8264
     3.6127   3.6127   3.6300   3.6300   4.9399   4.9399   6.6321   6.6321
     6.8169   6.8169  13.0775  13.0775  16.6111  16.6111  19.1550

     occupation numbers 
     1.0000   1.0000   1.0000   1.0000   1.0000   1.0000   1.0000   1.0000
     1.0000   1.0000   1.0000   1.0000   1.0000   1.0000   1.0000   1.0000
     1.0000   1.0000   1.0000   1.0000   1.0000   1.0000   1.0000   1.0000
     1.0000   1.0000   0.0000   0.0000   0.0000   0.0000   0.0000

          k = 0.0000 0.4811 0.0000 (  2030 PWs)   bands (ev):

  -115.4412-115.4412 -69.6382 -69.6372 -69.6357 -69.6354 -69.6345 -69.6339
    -9.1619  -8.9061   2.2750   2.5458   2.6875   3.0099   3.1124   3.1343
     3.4970   3.6035   3.7018   3.8803   4.1829   4.6473   5.3560   5.9562
     6.8778   7.2241  12.9633  15.1935  15.4286  16.1722  18.3506

     occupation numbers 
     1.0000   1.0000   1.0000   1.0000   1.0000   1.0000   1.0000   1.0000
     1.0000   1.0000   1.0000   1.0000   1.0000   1.0000   1.0000   1.0000
     1.0000   1.0000   1.0000   1.0000   1.0000   1.0000   1.0000   1.0000
     1.0000   1.0000   0.0000   0.0000   0.0000   0.0000   0.0000

          k = 0.0000 0.4811 0.0775 (  2022 PWs)   bands (ev):

  -115.4412-115.4412 -69.6381 -69.6372 -69.6356 -69.6353 -69.6345 -69.6340
    -9.1514  -8.9149   2.2550   2.4957   2.7008   2.9929   3.0763   3.1128
     3.5156   3.6058   3.6947   3.8543   4.1993   4.7019   5.4450   6.0108
     6.9200   7.1791  12.9426  14.8949  15.6611  16.1930  18.3299

     occupation numbers 
     1.0000   1.0000   1.0000   1.0000   1.0000   1.0000   1.0000   1.0000
     1.0000   1.0000   1.0000   1.0000   1.0000   1.0000   1.0000   1.0000
     1.0000   1.0000   1.0000   1.0000   1.0000   1.0000   1.0000   1.0000
     1.0000   1.0000   0.0000   0.0000   0.0000   0.0000   0.0000

          k = 0.0000 0.4811 0.1550 (  2031 PWs)   bands (ev):

  -115.4412-115.4412 -69.6381 -69.6374 -69.6355 -69.6353 -69.6345 -69.6341
    -9.1216  -8.9404   2.2078   2.3724   2.7400   2.9583   3.0162   3.0538
     3.5627   3.6126   3.6775   3.8003   4.2651   4.7009   5.7685   6.1616
     6.9747   7.0504  12.9432  14.4335  15.9126  16.2375  18.3437

     occupation numbers 
     1.0000   1.0000   1.0000   1.0000   1.0000   1.0000   1.0000   1.0000
     1.0000   1.0000   1.0000   1.0000   1.0000   1.0000   1.0000   1.0000
     1.0000   1.0000   1.0000   1.0000   1.0000   1.0000   1.0000   1.0000
     1.0000   1.0000   0.0000   0.0000   0.0000   0.0000   0.0000

          k = 0.0000 0.4811 0.2325 (  2033 PWs)   bands (ev):

  -115.4412-115.4412 -69.6381 -69.6376 -69.6354 -69.6353 -69.6344 -69.6342
    -9.0780  -8.9798   2.1678   2.2460   2.8024   2.9377   2.9702   2.9714
     3.6221   3.6238   3.6575   3.7422   4.3671   4.6069   6.2259   6.3771
     6.8555   6.9066  13.0865  13.9157  16.0909  16.2545  18.5632

     occupation numbers 
     1.0000   1.0000   1.0000   1.0000   1.0000   1.0000   1.0000   1.0000
     1.0000   1.0000   1.0000   1.0000   1.0000   1.0000   1.0000   1.0000
     1.0000   1.0000   1.0000   1.0000   1.0000   1.0000   1.0000   1.0000
     1.0000   1.0000   0.0000   0.0000   0.0000   0.0000   0.0000

          k = 0.0000 0.4811-0.3100 (  2032 PWs)   bands (ev):

  -115.4412-115.4412 -69.6379 -69.6379 -69.6353 -69.6353 -69.6343 -69.6343
    -9.0280  -9.0280   2.1734   2.1734   2.8828   2.8828   2.9426   2.9426
     3.6390   3.6390   3.6831   3.6831   4.4861   4.4861   6.6204   6.6204
     6.6443   6.6443  13.4294  13.4294  16.2042  16.2042  19.0718

     occupation numbers 
     1.0000   1.0000   1.0000   1.0000   1.0000   1.0000   1.0000   1.0000
     1.0000   1.0000   1.0000   1.0000   1.0000   1.0000   1.0000   1.0000
     1.0000   1.0000   1.0000   1.0000   1.0000   1.0000   1.0000   1.0000
     1.0000   1.0000   0.0000   0.0000   0.0000   0.0000   0.0000

          k = 0.0000-0.5774 0.0000 (  2028 PWs)   bands (ev):

  -115.4412-115.4412 -69.6381 -69.6372 -69.6357 -69.6355 -69.6346 -69.6340
    -9.1057  -8.9076   2.3067   2.5450   2.6962   3.0543   3.1080   3.1794
     3.5216   3.6312   3.7061   3.7726   4.2581   4.5610   5.2713   5.8553
     6.7352   7.1672  13.4849  14.7448  15.4596  16.0777  18.2555

     occupation numbers 
     1.0000   1.0000   1.0000   1.0000   1.0000   1.0000   1.0000   1.0000
     1.0000   1.0000   1.0000   1.0000   1.0000   1.0000   1.0000   1.0000
     1.0000   1.0000   1.0000   1.0000   1.0000   1.0000   1.0000   1.0000
     1.0000   1.0000   0.0000   0.0000   0.0000   0.0000   0.0000

          k = 0.0000-0.5774 0.0775 (  2022 PWs)   bands (ev):

  -115.4412-115.4412 -69.6380 -69.6373 -69.6358 -69.6354 -69.6345 -69.6340
    -9.0972  -8.9140   2.2844   2.4885   2.7106   3.0444   3.0818   3.1562
     3.5572   3.6325   3.6989   3.7725   4.2342   4.5246   5.4358   5.9127
     6.7891   7.1210  13.4046  14.6455  15.5493  16.1067  18.2225

     occupation numbers 
     1.0000   1.0000   1.0000   1.0000   1.0000   1.0000   1.0000   1.0000
     1.0000   1.0000   1.0000   1.0000   1.0000   1.0000   1.0000   1.0000
     1.0000   1.0000   1.0000   1.0000   1.0000   1.0000   1.0000   1.0000
     1.0000   1.0000   0.0000   0.0000   0.0000   0.0000   0.0000

          k = 0.0000-0.5774 0.1550 (  2028 PWs)   bands (ev):

  -115.4412-115.4412 -69.6380 -69.6375 -69.6357 -69.6354 -69.6345 -69.6341
    -9.0733  -8.9329   2.2308   2.3597   2.7527   3.0224   3.0390   3.0922
     3.6266   3.6363   3.6826   3.7699   4.2084   4.4399   5.8254   6.0706
     6.8796   6.9889  13.2831  14.3623  15.7373  16.1529  18.2335

     occupation numbers 
     1.0000   1.0000   1.0000   1.0000   1.0000   1.0000   1.0000   1.0000
     1.0000   1.0000   1.0000   1.0000   1.0000   1.0000   1.0000   1.0000
     1.0000   1.0000   1.0000   1.0000   1.0000   1.0000   1.0000   1.0000
     1.0000   1.0000   0.0000   0.0000   0.0000   0.0000   0.0000

          k = 0.0000-0.5774 0.2325 (  2034 PWs)   bands (ev):

  -115.4412-115.4412 -69.6380 -69.6376 -69.6355 -69.6354 -69.6345 -69.6342
    -9.0386  -8.9626   2.1812   2.2382   2.8199   3.0026   3.0036   3.0095
     3.6427   3.6657   3.6901   3.7594   4.2197   4.3467   6.2769   6.2948
     6.7885   6.8647  13.3085  13.9566  15.9198  16.1435  18.4811

     occupation numbers 
     1.0000   1.0000   1.0000   1.0000   1.0000   1.0000   1.0000   1.0000
     1.0000   1.0000   1.0000   1.0000   1.0000   1.0000   1.0000   1.0000
     1.0000   1.0000   1.0000   1.0000   1.0000   1.0000   1.0000   1.0000
     1.0000   1.0000   0.0000   0.0000   0.0000   0.0000   0.0000

          k = 0.0000-0.5774-0.3100 (  2048 PWs)   bands (ev):

  -115.4412-115.4412 -69.6379 -69.6379 -69.6355 -69.6355 -69.6344 -69.6344
    -8.9996  -8.9996   2.1757   2.1757   2.9066   2.9066   2.9978   2.9978
     3.6523   3.6523   3.7344   3.7344   4.2689   4.2689   6.5464   6.5464
     6.6563   6.6563  13.5562  13.5562  16.0597  16.0597  19.0242

     occupation numbers 
     1.0000   1.0000   1.0000   1.0000   1.0000   1.0000   1.0000   1.0000
     1.0000   1.0000   1.0000   1.0000   1.0000   1.0000   1.0000   1.0000
     1.0000   1.0000   1.0000   1.0000   1.0000   1.0000   1.0000   1.0000
     1.0000   1.0000   0.0000   0.0000   0.0000   0.0000   0.0000

          k = 0.0833 0.1443 0.0000 (  2023 PWs)   bands (ev):

  -115.4413-115.4412 -69.6390 -69.6366 -69.6344 -69.6342 -69.6339 -69.6337
    -9.6196  -9.0314   2.3843   2.5080   2.5616   2.6362   2.7283   2.8543
     3.4434   3.4750   3.6716   3.7711   3.9068   6.5762   6.7828   7.1019
     7.7361   7.7834   9.8697  13.7329  15.9691  18.9686  20.2835

     occupation numbers 
     1.0000   1.0000   1.0000   1.0000   1.0000   1.0000   1.0000   1.0000
     1.0000   1.0000   1.0000   1.0000   1.0000   1.0000   1.0000   1.0000
     1.0000   1.0000   1.0000   1.0000   1.0000   1.0000   1.0000   1.0000
     1.0000   1.0001   0.0000   0.0000   0.0000   0.0000   0.0000

          k = 0.0833 0.1443 0.0775 (  2013 PWs)   bands (ev):

  -115.4413-115.4412 -69.6389 -69.6367 -69.6344 -69.6342 -69.6339 -69.6336
    -9.5980  -9.0546   2.3700   2.5047   2.5565   2.6021   2.7172   2.7719
     3.4568   3.4853   3.6664   3.7158   4.1615   6.6137   6.7388   7.0591
     7.6961   7.7517  10.0453  13.5671  16.0939  18.9939  20.2836

     occupation numbers 
     1.0000   1.0000   1.0000   1.0000   1.0000   1.0000   1.0000   1.0000
     1.0000   1.0000   1.0000   1.0000   1.0000   1.0000   1.0000   1.0000
     1.0000   1.0000   1.0000   1.0000   1.0000   1.0000   1.0000   1.0000
     1.0000   1.0000   0.0000   0.0000   0.0000   0.0000   0.0000

          k = 0.0833 0.1443 0.1550 (  2008 PWs)   bands (ev):

  -115.4413-115.4412 -69.6386 -69.6369 -69.6343 -69.6342 -69.6339 -69.6337
    -9.5361  -9.1202   2.3295   2.4336   2.5521   2.5534   2.6846   2.6877
     3.4929   3.5118   3.6503   3.6773   4.6355   6.5141   6.7237   7.0817
     7.5665   7.6614  10.5071  13.1293  16.4400  19.0000  20.0501

     occupation numbers 
     1.0000   1.0000   1.0000   1.0000   1.0000   1.0000   1.0000   1.0000
     1.0000   1.0000   1.0000   1.0000   1.0000   1.0000   1.0000   1.0000
     1.0000   1.0000   1.0000   1.0000   1.0000   1.0000   1.0000   1.0000
     1.0000   1.0000   0.0000   0.0000   0.0000   0.0000   0.0000

          k = 0.0833 0.1443 0.2325 (  2012 PWs)   bands (ev):

  -115.4413-115.4412 -69.6382 -69.6373 -69.6342 -69.6341 -69.6340 -69.6339
    -9.4426  -9.2175   2.2836   2.3189   2.5613   2.5665   2.6361   2.6492
     3.5416   3.5484   3.6234   3.6391   5.1684   6.1409   6.8974   7.1971
     7.3657   7.5260  11.1362  12.5230  16.9779  18.5255  19.6584

     occupation numbers 
     1.0000   1.0000   1.0000   1.0000   1.0000   1.0000   1.0000   1.0000
     1.0000   1.0000   1.0000   1.0000   1.0000   1.0000   1.0000   1.0000
     1.0000   1.0000   1.0000   1.0000   1.0000   1.0000   1.0000   1.0000
     1.0000   1.0000   0.0000   0.0000   0.0000   0.0000   0.0000

          k = 0.0833 0.1443-0.3100 (  2008 PWs)   bands (ev):

  -115.4413-115.4413 -69.6378 -69.6378 -69.6341 -69.6341 -69.6339 -69.6339
    -9.3308  -9.3308   2.2694   2.2694   2.5788   2.5788   2.6177   2.6177
     3.5876   3.5876   3.5932   3.5932   5.6838   5.6838   7.1158   7.1158
     7.3685   7.3685  11.8341  11.8341  17.6962  17.6962  19.8142

     occupation numbers 
     1.0000   1.0000   1.0000   1.0000   1.0000   1.0000   1.0000   1.0000
     1.0000   1.0000   1.0000   1.0000   1.0000   1.0000   1.0000   1.0000
     1.0000   1.0000   1.0000   1.0000   1.0000   1.0000   1.0000   1.0000
     1.0000   1.0000   0.0000   0.0000   0.0000   0.0000   0.0000

          k = 0.0833 0.2406 0.0000 (  2026 PWs)   bands (ev):

  -115.4413-115.4412 -69.6388 -69.6367 -69.6348 -69.6345 -69.6343 -69.6338
    -9.5003  -8.9846   2.3213   2.5351   2.6004   2.6770   2.8363   3.0148
     3.4059   3.4822   3.6786   3.8822   3.9212   5.9266   6.2938   6.7270
     7.5651   7.5948  10.7524  14.4651  15.9960  17.8854  19.4639

     occupation numbers 
     1.0000   1.0000   1.0000   1.0000   1.0000   1.0000   1.0000   1.0000
     1.0000   1.0000   1.0000   1.0000   1.0000   1.0000   1.0000   1.0000
     1.0000   1.0000   1.0000   1.0000   1.0000   1.0000   1.0000   1.0000
     1.0000   1.0000   0.0000   0.0000   0.0000   0.0000   0.0000

          k = 0.0833 0.2406 0.0775 (  2025 PWs)   bands (ev):

  -115.4413-115.4412 -69.6387 -69.6368 -69.6348 -69.6345 -69.6343 -69.6338
    -9.4810  -9.0045   2.3058   2.5151   2.5951   2.6603   2.8236   2.9125
     3.4254   3.4938   3.6723   3.7676   4.2342   5.9654   6.2667   6.7287
     7.5357   7.5610  10.8672  14.2528  16.1244  17.9174  19.4851

     occupation numbers 
     1.0000   1.0000   1.0000   1.0000   1.0000   1.0000   1.0000   1.0000
     1.0000   1.0000   1.0000   1.0000   1.0000   1.0000   1.0000   1.0000
     1.0000   1.0000   1.0000   1.0000   1.0000   1.0000   1.0000   1.0000
     1.0000   1.0000   0.0000   0.0000   0.0000   0.0000   0.0000

          k = 0.0833 0.2406 0.1550 (  2022 PWs)   bands (ev):

  -115.4413-115.4412 -69.6385 -69.6370 -69.6347 -69.6345 -69.6342 -69.6338
    -9.4259  -9.0611   2.2666   2.4185   2.5992   2.6366   2.7835   2.7930
     3.4734   3.5194   3.6541   3.7114   4.6961   5.9997   6.2491   6.7872
     7.4121   7.4590  11.2060  13.7372  16.4400  17.9688  19.4245

     occupation numbers 
     1.0000   1.0000   1.0000   1.0000   1.0000   1.0000   1.0000   1.0000
     1.0000   1.0000   1.0000   1.0000   1.0000   1.0000   1.0000   1.0000
     1.0000   1.0000   1.0000   1.0000   1.0000   1.0000   1.0000   1.0000
     1.0000   1.0000   0.0000   0.0000   0.0000   0.0000   0.0000

          k = 0.0833 0.2406 0.2325 (  2016 PWs)   bands (ev):

  -115.4413-115.4412 -69.6382 -69.6374 -69.6346 -69.6345 -69.6341 -69.6339
    -9.3430  -9.1454   2.2290   2.2959   2.6165   2.6364   2.7224   2.7476
     3.5358   3.5531   3.6258   3.6602   5.1526   5.8206   6.4656   6.9202
     7.1659   7.3000  11.7345  13.0801  16.8826  17.8513  19.2222

     occupation numbers 
     1.0000   1.0000   1.0000   1.0000   1.0000   1.0000   1.0000   1.0000
     1.0000   1.0000   1.0000   1.0000   1.0000   1.0000   1.0000   1.0000
     1.0000   1.0000   1.0000   1.0000   1.0000   1.0000   1.0000   1.0000
     1.0000   1.0000   0.0000   0.0000   0.0000   0.0000   0.0000

          k = 0.0833 0.2406-0.3100 (  2014 PWs)   bands (ev):

  -115.4412-115.4412 -69.6378 -69.6378 -69.6345 -69.6345 -69.6340 -69.6340
    -9.2445  -9.2445   2.2298   2.2298   2.6354   2.6354   2.7126   2.7126
     3.5890   3.5890   3.6023   3.6023   5.5301   5.5301   6.8030   6.8030
     7.1185   7.1185  12.3853  12.3853  17.4088  17.4088  19.2809

     occupation numbers 
     1.0000   1.0000   1.0000   1.0000   1.0000   1.0000   1.0000   1.0000
     1.0000   1.0000   1.0000   1.0000   1.0000   1.0000   1.0000   1.0000
     1.0000   1.0000   1.0000   1.0000   1.0000   1.0000   1.0000   1.0000
     1.0000   1.0000   0.0000   0.0000   0.0000   0.0000   0.0000

          k = 0.0833 0.3368 0.0000 (  2023 PWs)   bands (ev):

  -115.4413-115.4412 -69.6385 -69.6369 -69.6351 -69.6349 -69.6344 -69.6339
    -9.3519  -8.9373   2.2802   2.5523   2.6334   2.7884   2.9714   3.1578
     3.3843   3.5155   3.6880   3.8703   4.1228   5.2283   5.8601   6.2809
     7.3085   7.3772  11.7197  15.0998  16.0061  16.9182  18.8188

     occupation numbers 
     1.0000   1.0000   1.0000   1.0000   1.0000   1.0000   1.0000   1.0000
     1.0000   1.0000   1.0000   1.0000   1.0000   1.0000   1.0000   1.0000
     1.0000   1.0000   1.0000   1.0000   1.0000   1.0000   1.0000   1.0000
     1.0000   1.0000   0.0000   0.0000   0.0000   0.0000   0.0000

          k = 0.0833 0.3368 0.0775 (  2028 PWs)   bands (ev):

  -115.4413-115.4412 -69.6385 -69.6370 -69.6351 -69.6349 -69.6344 -69.6339
    -9.3359  -8.9528   2.2641   2.5181   2.6381   2.7757   2.9553   3.0467
     3.4087   3.5288   3.6812   3.8123   4.3414   5.2898   5.8398   6.3115
     7.3019   7.3425  11.7851  14.8405  16.1275  16.9601  18.8502

     occupation numbers 
     1.0000   1.0000   1.0000   1.0000   1.0000   1.0000   1.0000   1.0000
     1.0000   1.0000   1.0000   1.0000   1.0000   1.0000   1.0000   1.0000
     1.0000   1.0000   1.0000   1.0000   1.0000   1.0000   1.0000   1.0000
     1.0000   1.0000   0.0000   0.0000   0.0000   0.0000   0.0000

          k = 0.0833 0.3368 0.1550 (  2023 PWs)   bands (ev):

  -115.4412-115.4412 -69.6383 -69.6372 -69.6350 -69.6349 -69.6344 -69.6340
    -9.2904  -8.9970   2.2254   2.4110   2.6587   2.7517   2.8947   2.9163
     3.4674   3.5507   3.6630   3.7523   4.6805   5.4008   5.8773   6.4203
     7.1969   7.2696  12.0025  14.2765  16.3603  17.0449  18.8227

     occupation numbers 
     1.0000   1.0000   1.0000   1.0000   1.0000   1.0000   1.0000   1.0000
     1.0000   1.0000   1.0000   1.0000   1.0000   1.0000   1.0000   1.0000
     1.0000   1.0000   1.0000   1.0000   1.0000   1.0000   1.0000   1.0000
     1.0000   1.0000   0.0000   0.0000   0.0000   0.0000   0.0000

          k = 0.0833 0.3368 0.2325 (  2029 PWs)   bands (ev):

  -115.4412-115.4412 -69.6381 -69.6375 -69.6350 -69.6349 -69.6343 -69.6341
    -9.2225  -9.0636   2.1934   2.2830   2.6923   2.7410   2.8181   2.8588
     3.5410   3.5765   3.6376   3.6908   4.9529   5.3367   6.2031   6.5981
     6.9975   7.0843  12.4000  13.6131  16.6312  17.0572  18.7959

     occupation numbers 
     1.0000   1.0000   1.0000   1.0000   1.0000   1.0000   1.0000   1.0000
     1.0000   1.0000   1.0000   1.0000   1.0000   1.0000   1.0000   1.0000
     1.0000   1.0000   1.0000   1.0000   1.0000   1.0000   1.0000   1.0000
     1.0000   1.0000   0.0000   0.0000   0.0000   0.0000   0.0000

          k = 0.0833 0.3368-0.3100 (  2020 PWs)   bands (ev):

  -115.4412-115.4412 -69.6378 -69.6378 -69.6349 -69.6349 -69.6342 -69.6342
    -9.1428  -9.1428   2.2051   2.2051   2.7264   2.7264   2.8115   2.8115
     3.5998   3.5998   3.6261   3.6261   5.1657   5.1657   6.6296   6.6296
     6.8508   6.8508  12.9589  12.9589  16.8973  16.8973  19.0108

     occupation numbers 
     1.0000   1.0000   1.0000   1.0000   1.0000   1.0000   1.0000   1.0000
     1.0000   1.0000   1.0000   1.0000   1.0000   1.0000   1.0000   1.0000
     1.0000   1.0000   1.0000   1.0000   1.0000   1.0000   1.0000   1.0000
     1.0000   1.0000   0.0000   0.0000   0.0000   0.0000   0.0000

          k = 0.0833 0.4330 0.0000 (  2026 PWs)   bands (ev):

  -115.4413-115.4412 -69.6382 -69.6371 -69.6355 -69.6352 -69.6346 -69.6340
    -9.2072  -8.9088   2.2914   2.5712   2.6679   2.9236   3.0962   3.1672
     3.4534   3.5583   3.7004   3.9054   4.2053   4.7733   5.4853   5.9082
     6.9922   7.1858  12.6860  15.3999  15.7060  16.3054  18.4827

     occupation numbers 
     1.0000   1.0000   1.0000   1.0000   1.0000   1.0000   1.0000   1.0000
     1.0000   1.0000   1.0000   1.0000   1.0000   1.0000   1.0000   1.0000
     1.0000   1.0000   1.0000   1.0000   1.0000   1.0000   1.0000   1.0000
     1.0000   1.0000   0.0000   0.0000   0.0000   0.0000   0.0000

          k = 0.0833 0.4330 0.0775 (  2024 PWs)   bands (ev):

  -115.4412-115.4412 -69.6382 -69.6371 -69.6355 -69.6352 -69.6345 -69.6340
    -9.1951  -8.9193   2.2731   2.5269   2.6784   2.9091   3.0741   3.1038
     3.4592   3.5757   3.6942   3.8657   4.2834   4.8593   5.5163   5.9630
     7.0183   7.1447  12.7007  15.0847  15.9133  16.3307  18.4544

     occupation numbers 
     1.0000   1.0000   1.0000   1.0000   1.0000   1.0000   1.0000   1.0000
     1.0000   1.0000   1.0000   1.0000   1.0000   1.0000   1.0000   1.0000
     1.0000   1.0000   1.0000   1.0000   1.0000   1.0000   1.0000   1.0000
     1.0000   1.0000   0.0000   0.0000   0.0000   0.0000   0.0000

          k = 0.0833 0.4330 0.1550 (  2030 PWs)   bands (ev):

  -115.4412-115.4412 -69.6382 -69.6373 -69.6354 -69.6352 -69.6345 -69.6341
    -9.1611  -8.9498   2.2296   2.4094   2.7108   2.8806   2.9918   3.0234
     3.5049   3.5966   3.6794   3.8021   4.4164   4.9219   5.7439   6.1194
     6.9722   7.0839  12.7854  14.5626  16.1363  16.3970  18.3985

     occupation numbers 
     1.0000   1.0000   1.0000   1.0000   1.0000   1.0000   1.0000   1.0000
     1.0000   1.0000   1.0000   1.0000   1.0000   1.0000   1.0000   1.0000
     1.0000   1.0000   1.0000   1.0000   1.0000   1.0000   1.0000   1.0000
     1.0000   1.0000   0.0000   0.0000   0.0000   0.0000   0.0000

          k = 0.0833 0.4330 0.2325 (  2030 PWs)   bands (ev):

  -115.4412-115.4412 -69.6381 -69.6376 -69.6353 -69.6352 -69.6344 -69.6342
    -9.1109  -8.9964   2.1936   2.2809   2.7639   2.8620   2.9205   2.9522
     3.5699   3.6131   3.6646   3.7368   4.5570   4.8370   6.1513   6.3623
     6.7784   6.9781  13.0199  13.9829  16.2957  16.4453  18.4782

     occupation numbers 
     1.0000   1.0000   1.0000   1.0000   1.0000   1.0000   1.0000   1.0000
     1.0000   1.0000   1.0000   1.0000   1.0000   1.0000   1.0000   1.0000
     1.0000   1.0000   1.0000   1.0000   1.0000   1.0000   1.0000   1.0000
     1.0000   1.0000   0.0000   0.0000   0.0000   0.0000   0.0000

          k = 0.0833 0.4330-0.3100 (  2046 PWs)   bands (ev):

  -115.4412-115.4412 -69.6379 -69.6379 -69.6353 -69.6353 -69.6344 -69.6344
    -9.0529  -9.0529   2.2036   2.2036   2.8273   2.8273   2.9038   2.9038
     3.6153   3.6153   3.6777   3.6777   4.7011   4.7011   6.4872   6.4872
     6.7213   6.7213  13.4365  13.4365  16.4062  16.4062  18.8193

     occupation numbers 
     1.0000   1.0000   1.0000   1.0000   1.0000   1.0000   1.0000   1.0000
     1.0000   1.0000   1.0000   1.0000   1.0000   1.0000   1.0000   1.0000
     1.0000   1.0000   1.0000   1.0000   1.0000   1.0000   1.0000   1.0000
     1.0000   1.0000   0.0000   0.0000   0.0000   0.0000   0.0000

          k = 0.0833 0.5292 0.0000 (  2025 PWs)   bands (ev):

  -115.4412-115.4412 -69.6381 -69.6372 -69.6357 -69.6353 -69.6346 -69.6341
    -9.1080  -8.9063   2.3275   2.6048   2.6856   3.0410   3.0892   3.1949
     3.5075   3.5993   3.7141   3.8158   4.2298   4.6280   5.2682   5.7613
     6.7240   7.0729  13.5009  15.0642  15.4782  16.1157  18.2938

     occupation numbers 
     1.0000   1.0000   1.0000   1.0000   1.0000   1.0000   1.0000   1.0000
     1.0000   1.0000   1.0000   1.0000   1.0000   1.0000   1.0000   1.0000
     1.0000   1.0000   1.0000   1.0000   1.0000   1.0000   1.0000   1.0000
     1.0000   1.0000   0.0000   0.0000   0.0000   0.0000   0.0000

          k = 0.0833 0.5292 0.0775 (  2025 PWs)   bands (ev):

  -115.4412-115.4412 -69.6380 -69.6373 -69.6357 -69.6353 -69.6346 -69.6341
    -9.0994  -8.9129   2.3074   2.5454   2.6969   3.0250   3.0721   3.1641
     3.5335   3.6059   3.7101   3.8156   4.2102   4.6137   5.4026   5.8314
     6.7728   7.0286  13.4499  14.9078  15.6023  16.1438  18.2229

     occupation numbers 
     1.0000   1.0000   1.0000   1.0000   1.0000   1.0000   1.0000   1.0000
     1.0000   1.0000   1.0000   1.0000   1.0000   1.0000   1.0000   1.0000
     1.0000   1.0000   1.0000   1.0000   1.0000   1.0000   1.0000   1.0000
     1.0000   1.0000   0.0000   0.0000   0.0000   0.0000   0.0000

          k = 0.0833 0.5292 0.1550 (  2030 PWs)   bands (ev):

  -115.4412-115.4412 -69.6380 -69.6375 -69.6356 -69.6353 -69.6346 -69.6342
    -9.0751  -8.9322   2.2581   2.4100   2.7329   2.9952   3.0387   3.0893
     3.5811   3.6194   3.7063   3.8074   4.2081   4.5436   5.7253   6.0420
     6.8046   6.9474  13.3820  14.5701  15.8049  16.1925  18.1409

     occupation numbers 
     1.0000   1.0000   1.0000   1.0000   1.0000   1.0000   1.0000   1.0000
     1.0000   1.0000   1.0000   1.0000   1.0000   1.0000   1.0000   1.0000
     1.0000   1.0000   1.0000   1.0000   1.0000   1.0000   1.0000   1.0000
     1.0000   1.0000   0.0000   0.0000   0.0000   0.0000   0.0000

          k = 0.0833 0.5292 0.2325 (  2030 PWs)   bands (ev):

  -115.4412-115.4412 -69.6380 -69.6376 -69.6355 -69.6353 -69.6345 -69.6343
    -9.0399  -8.9625   2.2128   2.2812   2.7948   2.9597   3.0082   3.0107
     3.6134   3.6297   3.7198   3.7845   4.2566   4.4419   6.0616   6.3759
     6.6278   6.9041  13.4486  14.1379  15.9815  16.1906  18.2712

     occupation numbers 
     1.0000   1.0000   1.0000   1.0000   1.0000   1.0000   1.0000   1.0000
     1.0000   1.0000   1.0000   1.0000   1.0000   1.0000   1.0000   1.0000
     1.0000   1.0000   1.0000   1.0000   1.0000   1.0000   1.0000   1.0000
     1.0000   1.0000   0.0000   0.0000   0.0000   0.0000   0.0000

          k = 0.0833 0.5292-0.3100 (  2036 PWs)   bands (ev):

  -115.4412-115.4412 -69.6379 -69.6379 -69.6354 -69.6354 -69.6344 -69.6344
    -9.0002  -9.0002   2.2124   2.2124   2.8779   2.8779   2.9936   2.9936
     3.6275   3.6275   3.7518   3.7518   4.3405   4.3405   6.3585   6.3585
     6.7150   6.7150  13.7201  13.7201  16.1136  16.1136  18.6790

     occupation numbers 
     1.0000   1.0000   1.0000   1.0000   1.0000   1.0000   1.0000   1.0000
     1.0000   1.0000   1.0000   1.0000   1.0000   1.0000   1.0000   1.0000
     1.0000   1.0000   1.0000   1.0000   1.0000   1.0000   1.0000   1.0000
     1.0000   1.0000   0.0000   0.0000   0.0000   0.0000   0.0000

          k = 0.1667 0.2887 0.0000 (  2037 PWs)   bands (ev):

  -115.4413-115.4412 -69.6386 -69.6369 -69.6350 -69.6349 -69.6345 -69.6340
    -9.3731  -8.9429   2.3347   2.5008   2.6676   2.7308   2.9598   3.1396
     3.3840   3.4995   3.6859   3.8743   4.1024   5.5403   5.7037   6.3281
     7.3249   7.3629  11.6271  15.0646  16.1210  17.1987  18.7813

     occupation numbers 
     1.0000   1.0000   1.0000   1.0000   1.0000   1.0000   1.0000   1.0000
     1.0000   1.0000   1.0000   1.0000   1.0000   1.0000   1.0000   1.0000
     1.0000   1.0000   1.0000   1.0000   1.0000   1.0000   1.0000   1.0000
     1.0000   1.0000   0.0000   0.0000   0.0000   0.0000   0.0000

          k = 0.1667 0.2887 0.0775 (  2034 PWs)   bands (ev):

  -115.4413-115.4412 -69.6385 -69.6369 -69.6350 -69.6349 -69.6345 -69.6340
    -9.3566  -8.9591   2.3157   2.4833   2.6626   2.7161   2.9447   3.0222
     3.4067   3.5195   3.6794   3.8119   4.3351   5.6160   5.6870   6.3288
     7.2807   7.3610  11.7027  14.8271  16.2150  17.2277  18.9201

     occupation numbers 
     1.0000   1.0000   1.0000   1.0000   1.0000   1.0000   1.0000   1.0000
     1.0000   1.0000   1.0000   1.0000   1.0000   1.0000   1.0000   1.0000
     1.0000   1.0000   1.0000   1.0000   1.0000   1.0000   1.0000   1.0000
     1.0000   1.0000   0.0000   0.0000   0.0000   0.0000   0.0000

          k = 0.1667 0.2887 0.1550 (  2028 PWs)   bands (ev):

  -115.4413-115.4412 -69.6384 -69.6371 -69.6349 -69.6348 -69.6344 -69.6340
    -9.3096  -9.0051   2.2696   2.4086   2.6573   2.6906   2.8730   2.9041
     3.4647   3.5465   3.6618   3.7516   4.7092   5.6105   5.8559   6.3826
     7.1559   7.2971  11.9448  14.2767  16.4357  17.2877  19.0987

     occupation numbers 
     1.0000   1.0000   1.0000   1.0000   1.0000   1.0000   1.0000   1.0000
     1.0000   1.0000   1.0000   1.0000   1.0000   1.0000   1.0000   1.0000
     1.0000   1.0000   1.0000   1.0000   1.0000   1.0000   1.0000   1.0000
     1.0000   1.0000   0.0000   0.0000   0.0000   0.0000   0.0000

          k = 0.1667 0.2887 0.2325 (  2030 PWs)   bands (ev):

  -115.4412-115.4412 -69.6382 -69.6375 -69.6349 -69.6348 -69.6343 -69.6341
    -9.2394  -9.0745   2.2281   2.2977   2.6632   2.6852   2.8070   2.8518
     3.5385   3.5739   3.6373   3.6905   5.0255   5.4628   6.2469   6.5254
     6.9736   7.0888  12.3686  13.6109  16.7396  17.2775  18.9511

     occupation numbers 
     1.0000   1.0000   1.0000   1.0000   1.0000   1.0000   1.0000   1.0000
     1.0000   1.0000   1.0000   1.0000   1.0000   1.0000   1.0000   1.0000
     1.0000   1.0000   1.0000   1.0000   1.0000   1.0000   1.0000   1.0000
     1.0000   1.0000   0.0000   0.0000   0.0000   0.0000   0.0000

          k = 0.1667 0.2887-0.3100 (  2024 PWs)   bands (ev):

  -115.4412-115.4412 -69.6378 -69.6378 -69.6348 -69.6348 -69.6342 -69.6342
    -9.1568  -9.1568   2.2300   2.2300   2.6778   2.6778   2.8086   2.8086
     3.5961   3.5961   3.6274   3.6274   5.2674   5.2674   6.6352   6.6352
     6.8158   6.8158  12.9463  12.9463  17.0695  17.0695  18.8505

     occupation numbers 
     1.0000   1.0000   1.0000   1.0000   1.0000   1.0000   1.0000   1.0000
     1.0000   1.0000   1.0000   1.0000   1.0000   1.0000   1.0000   1.0000
     1.0000   1.0000   1.0000   1.0000   1.0000   1.0000   1.0000   1.0000
     1.0000   1.0000   0.0000   0.0000   0.0000   0.0000   0.0000

          k = 0.1667 0.3849 0.0000 (  2039 PWs)   bands (ev):

  -115.4413-115.4412 -69.6383 -69.6371 -69.6353 -69.6352 -69.6347 -69.6342
    -9.2329  -8.9112   2.3785   2.5144   2.7089   2.8394   3.0862   3.2139
     3.3855   3.5234   3.7002   3.9141   4.2216   5.0746   5.4291   5.7922
     7.0359   7.0947  12.6038  15.3894  16.2555  16.5413  18.5659

     occupation numbers 
     1.0000   1.0000   1.0000   1.0000   1.0000   1.0000   1.0000   1.0000
     1.0000   1.0000   1.0000   1.0000   1.0000   1.0000   1.0000   1.0000
     1.0000   1.0000   1.0000   1.0000   1.0000   1.0000   1.0000   1.0000
     1.0000   1.0000   0.0000   0.0000   0.0000   0.0000   0.0000

          k = 0.1667 0.3849 0.0775 (  2033 PWs)   bands (ev):

  -115.4412-115.4412 -69.6383 -69.6372 -69.6353 -69.6351 -69.6346 -69.6342
    -9.2201  -8.9227   2.3577   2.4959   2.7040   2.8257   3.0654   3.1007
     3.4064   3.5579   3.6949   3.8728   4.3487   5.1305   5.4881   5.8118
     6.9904   7.1148  12.6431  15.1951  16.2740  16.5846  18.6130

     occupation numbers 
     1.0000   1.0000   1.0000   1.0000   1.0000   1.0000   1.0000   1.0000
     1.0000   1.0000   1.0000   1.0000   1.0000   1.0000   1.0000   1.0000
     1.0000   1.0000   1.0000   1.0000   1.0000   1.0000   1.0000   1.0000
     1.0000   1.0000   0.0000   0.0000   0.0000   0.0000   0.0000

          k = 0.1667 0.3849 0.1550 (  2030 PWs)   bands (ev):

  -115.4412-115.4412 -69.6382 -69.6373 -69.6352 -69.6351 -69.6346 -69.6342
    -9.1837  -8.9559   2.3057   2.4278   2.7034   2.7937   2.9509   3.0110
     3.4704   3.5897   3.6827   3.8099   4.5507   5.1417   5.7550   5.9236
     6.8487   7.1256  12.7867  14.7137  16.3651  16.6696  18.5043

     occupation numbers 
     1.0000   1.0000   1.0000   1.0000   1.0000   1.0000   1.0000   1.0000
     1.0000   1.0000   1.0000   1.0000   1.0000   1.0000   1.0000   1.0000
     1.0000   1.0000   1.0000   1.0000   1.0000   1.0000   1.0000   1.0000
     1.0000   1.0000   0.0000   0.0000   0.0000   0.0000   0.0000

          k = 0.1667 0.3849 0.2325 (  2032 PWs)   bands (ev):

  -115.4412-115.4412 -69.6381 -69.6375 -69.6352 -69.6351 -69.6345 -69.6343
    -9.1299  -9.0065   2.2587   2.3254   2.7229   2.7704   2.8847   2.9416
     3.5482   3.6071   3.6717   3.7430   4.7288   5.0369   6.0763   6.2300
     6.6526   7.0114  13.0832  14.1203  16.5190  16.7247  18.3323

     occupation numbers 
[...]
     3.3782   3.5004   3.7207   3.9526   4.1712   4.8540   5.2341   5.4212
     6.7151   6.7885  13.5935  15.4961  16.2245  16.2810  18.6950

     occupation numbers 
     1.0000   1.0000   1.0000   1.0000   1.0000   1.0000   1.0000   1.0000
     1.0000   1.0000   1.0000   1.0000   1.0000   1.0000   1.0000   1.0000
     1.0000   1.0000   1.0000   1.0000   1.0000   1.0000   1.0000   1.0000
     1.0000   1.0000   0.0000   0.0000   0.0000   0.0000   0.0000

          k = 0.2500 0.4330 0.0775 (  2037 PWs)   bands (ev):

  -115.4412-115.4412 -69.6381 -69.6373 -69.6354 -69.6353 -69.6349 -69.6344
    -9.1057  -8.9097   2.4570   2.5438   2.8151   2.8505   3.1535   3.1852
     3.4090   3.5598   3.7191   3.9391   4.2249   4.8657   5.2468   5.5627
     6.6567   6.8405  13.6135  15.3912  16.2497  16.3010  18.3654

     occupation numbers 
     1.0000   1.0000   1.0000   1.0000   1.0000   1.0000   1.0000   1.0000
     1.0000   1.0000   1.0000   1.0000   1.0000   1.0000   1.0000   1.0000
     1.0000   1.0000   1.0000   1.0000   1.0000   1.0000   1.0000   1.0000
     1.0000   1.0000   0.0000   0.0000   0.0000   0.0000   0.0000

          k = 0.2500 0.4330 0.1550 (  2036 PWs)   bands (ev):

  -115.4412-115.4412 -69.6380 -69.6375 -69.6353 -69.6353 -69.6348 -69.6345
    -9.0804  -8.9302   2.4444   2.4521   2.7744   2.8117   3.0499   3.0821
     3.4779   3.5990   3.7218   3.8966   4.3441   4.8328   5.3600   5.9051
     6.5026   6.9300  13.6965  15.0947  16.3250  16.3567  17.9069

     occupation numbers 
     1.0000   1.0000   1.0000   1.0000   1.0000   1.0000   1.0000   1.0000
     1.0000   1.0000   1.0000   1.0000   1.0000   1.0000   1.0000   1.0000
     1.0000   1.0000   1.0000   1.0000   1.0000   1.0000   1.0000   1.0000
     1.0000   1.0000   0.0000   0.0000   0.0000   0.0000   0.0000

          k = 0.2500 0.4330 0.2325 (  2035 PWs)   bands (ev):

  -115.4412-115.4412 -69.6380 -69.6376 -69.6352 -69.6352 -69.6347 -69.6345
    -9.0436  -8.9622   2.3736   2.3933   2.7374   2.7985   2.9889   3.0074
     3.5455   3.6053   3.7409   3.8391   4.4765   4.7321   5.5951   6.1159
     6.4643   6.9286  13.8939  14.6715  16.4256  16.4305  17.5971

     occupation numbers 
     1.0000   1.0000   1.0000   1.0000   1.0000   1.0000   1.0000   1.0000
     1.0000   1.0000   1.0000   1.0000   1.0000   1.0000   1.0000   1.0000
     1.0000   1.0000   1.0000   1.0000   1.0000   1.0000   1.0000   1.0000
     1.0000   1.0000   0.0000   0.0000   0.0000   0.0000   0.0000

          k = 0.2500 0.4330-0.3100 (  2026 PWs)   bands (ev):

  -115.4412-115.4412 -69.6378 -69.6378 -69.6351 -69.6351 -69.6346 -69.6346
    -9.0019  -9.0019   2.3520   2.3520   2.7649   2.7649   2.9736   2.9736
     3.5887   3.5887   3.7824   3.7824   4.6075   4.6075   5.8801   5.8801
     6.7551   6.7551  14.2341  14.2341  16.4743  16.4743  17.5677

     occupation numbers 
     1.0000   1.0000   1.0000   1.0000   1.0000   1.0000   1.0000   1.0000
     1.0000   1.0000   1.0000   1.0000   1.0000   1.0000   1.0000   1.0000
     1.0000   1.0000   1.0000   1.0000   1.0000   1.0000   1.0000   1.0000
     1.0000   1.0000   0.0000   0.0000   0.0000   0.0000   0.0000

          k = 0.2500 0.5292 0.0000 (  2030 PWs)   bands (ev):

  -115.4412-115.4412 -69.6378 -69.6374 -69.6355 -69.6352 -69.6350 -69.6346
    -9.0253  -8.9183   2.4410   2.7213   2.8934   3.0054   3.2335   3.3162
     3.4625   3.4952   3.7154   3.7607   4.3061   4.5871   4.7560   5.7730
     6.4066   6.5580  14.5072  15.5399  15.7364  16.1080  18.4026

     occupation numbers 
     1.0000   1.0000   1.0000   1.0000   1.0000   1.0000   1.0000   1.0000
     1.0000   1.0000   1.0000   1.0000   1.0000   1.0000   1.0000   1.0000
     1.0000   1.0000   1.0000   1.0000   1.0000   1.0000   1.0000   1.0000
     1.0000   1.0000   0.0000   0.0000   0.0000   0.0000   0.0000

          k = 0.2500 0.5292 0.0775 (  2035 PWs)   bands (ev):

  -115.4412-115.4412 -69.6379 -69.6375 -69.6354 -69.6352 -69.6350 -69.6346
    -9.0201  -8.9212   2.4482   2.6855   2.8274   2.9911   3.1992   3.2548
     3.4580   3.5436   3.7284   3.8054   4.2879   4.6146   4.7851   5.8922
     6.3933   6.5845  14.5070  15.4830  15.8040  16.1345  18.0341

     occupation numbers 
     1.0000   1.0000   1.0000   1.0000   1.0000   1.0000   1.0000   1.0000
     1.0000   1.0000   1.0000   1.0000   1.0000   1.0000   1.0000   1.0000
     1.0000   1.0000   1.0000   1.0000   1.0000   1.0000   1.0000   1.0000
     1.0000   1.0000   0.0000   0.0000   0.0000   0.0000   0.0000

          k = 0.2500 0.5292 0.1550 (  2034 PWs)   bands (ev):

  -115.4412-115.4412 -69.6379 -69.6376 -69.6353 -69.6352 -69.6350 -69.6346
    -9.0057  -8.9299   2.4563   2.5980   2.7059   2.9421   3.1352   3.1642
     3.4937   3.5613   3.7715   3.8823   4.2726   4.5639   4.9798   6.1225
     6.2975   6.7227  14.5324  15.3549  15.9263  16.2162  17.3858

     occupation numbers 
     1.0000   1.0000   1.0000   1.0000   1.0000   1.0000   1.0000   1.0000
     1.0000   1.0000   1.0000   1.0000   1.0000   1.0000   1.0000   1.0000
     1.0000   1.0000   1.0000   1.0000   1.0000   1.0000   1.0000   1.0000
     1.0000   1.0000   0.0000   0.0000   0.0000   0.0000   0.0000

          k = 0.2500 0.5292 0.2325 (  2029 PWs)   bands (ev):

  -115.4412-115.4412 -69.6379 -69.6377 -69.6353 -69.6352 -69.6348 -69.6347
    -8.9855  -8.9444   2.4351   2.4922   2.6796   2.8506   3.0963   3.1130
     3.5226   3.5568   3.8322   3.9117   4.3039   4.4711   5.2761   5.9259
     6.5529   6.8278  14.6408  15.1408  16.0567  16.2987  16.9476

     occupation numbers 
     1.0000   1.0000   1.0000   1.0000   1.0000   1.0000   1.0000   1.0000
     1.0000   1.0000   1.0000   1.0000   1.0000   1.0000   1.0000   1.0000
     1.0000   1.0000   1.0000   1.0000   1.0000   1.0000   1.0000   1.0000
     1.0000   1.0000   0.0000   0.0000   0.0000   0.0000   0.0000

          k = 0.2500 0.5292-0.3100 (  2030 PWs)   bands (ev):

  -115.4412-115.4412 -69.6378 -69.6378 -69.6352 -69.6352 -69.6348 -69.6348
    -8.9638  -8.9638   2.4299   2.4299   2.7487   2.7487   3.0918   3.0918
     3.5429   3.5429   3.8863   3.8863   4.3784   4.3784   5.6067   5.6067
     6.7773   6.7773  14.8643  14.8643  16.2046  16.2046  17.0241

     occupation numbers 
     1.0000   1.0000   1.0000   1.0000   1.0000   1.0000   1.0000   1.0000
     1.0000   1.0000   1.0000   1.0000   1.0000   1.0000   1.0000   1.0000
     1.0000   1.0000   1.0000   1.0000   1.0000   1.0000   1.0000   1.0000
     1.0000   1.0000   0.0000   0.0000   0.0000   0.0000   0.0000

          k = 0.3333 0.5774 0.0000 (  2037 PWs)   bands (ev):

  -115.4412-115.4412 -69.6376 -69.6376 -69.6355 -69.6352 -69.6352 -69.6347
    -8.9586  -8.9586   2.4456   2.8185   2.8185   3.1879   3.3695   3.3695
     3.4272   3.5349   3.6222   3.6222   4.3816   4.4936   4.4936   6.1408
     6.1408   6.3316  15.3101  15.3101  15.6139  15.9761  18.4371

     occupation numbers 
     1.0000   1.0000   1.0000   1.0000   1.0000   1.0000   1.0000   1.0000
     1.0000   1.0000   1.0000   1.0000   1.0000   1.0000   1.0000   1.0000
     1.0000   1.0000   1.0000   1.0000   1.0000   1.0000   1.0000   1.0000
     1.0000   1.0000   0.0000   0.0000   0.0000   0.0000   0.0000

          k = 0.3333 0.5774 0.0775 (  2025 PWs)   bands (ev):

  -115.4412-115.4412 -69.6377 -69.6377 -69.6353 -69.6351 -69.6351 -69.6347
    -8.9573  -8.9573   2.4612   2.7735   2.7735   3.1238   3.3017   3.3017
     3.4361   3.5314   3.7039   3.7039   4.4670   4.4670   4.4798   6.2413
     6.2413   6.2598  15.3330  15.3330  15.6421  15.9711  18.0848

     occupation numbers 
     1.0000   1.0000   1.0000   1.0000   1.0000   1.0000   1.0000   1.0000
     1.0000   1.0000   1.0000   1.0000   1.0000   1.0000   1.0000   1.0000
     1.0000   1.0000   1.0000   1.0000   1.0000   1.0000   1.0000   1.0000
     1.0000   1.0000   0.0000   0.0000   0.0000   0.0000   0.0000

          k = 0.3333 0.5774 0.1550 (  2037 PWs)   bands (ev):

  -115.4412-115.4412 -69.6378 -69.6378 -69.6353 -69.6351 -69.6351 -69.6348
    -8.9543  -8.9543   2.5081   2.6623   2.6623   2.9837   3.2234   3.2234
     3.4521   3.5216   3.8238   3.8238   4.4099   4.4099   4.7282   6.0582
     6.4741   6.4741  15.4064  15.4064  15.7128  15.9545  17.4010

     occupation numbers 
     1.0000   1.0000   1.0000   1.0000   1.0000   1.0000   1.0000   1.0000
     1.0000   1.0000   1.0000   1.0000   1.0000   1.0000   1.0000   1.0000
     1.0000   1.0000   1.0000   1.0000   1.0000   1.0000   1.0000   1.0000
     1.0000   1.0000   0.0000   0.0000   0.0000   0.0000   0.0000

          k = 0.3333 0.5774 0.2325 (  2025 PWs)   bands (ev):

  -115.4412-115.4412 -69.6377 -69.6377 -69.6352 -69.6350 -69.6350 -69.6348
    -8.9513  -8.9513   2.5544   2.5544   2.5865   2.8313   3.1838   3.1838
     3.4700   3.5067   3.9108   3.9108   4.3578   4.3578   5.0561   5.7621
     6.6981   6.6981  15.5322  15.5322  15.7967  15.9222  16.7868

     occupation numbers 
     1.0000   1.0000   1.0000   1.0000   1.0000   1.0000   1.0000   1.0000
     1.0000   1.0000   1.0000   1.0000   1.0000   1.0000   1.0000   1.0000
     1.0000   1.0000   1.0000   1.0000   1.0000   1.0000   1.0000   1.0000
     1.0000   1.0000   0.0000   0.0000   0.0000   0.0000   0.0000

          k = 0.3333 0.5774-0.3100 (  2034 PWs)   bands (ev):

  -115.4412-115.4412 -69.6378 -69.6378 -69.6351 -69.6351 -69.6350 -69.6350
    -8.9501  -8.9501   2.5114   2.5114   2.6954   2.6954   3.1722   3.1722
     3.4888   3.4888   3.9433   3.9433   4.3362   4.3362   5.4142   5.4142
     6.7892   6.7892  15.6254  15.6254  15.8698  15.8698  16.5113

     occupation numbers 
     1.0000   1.0000   1.0000   1.0000   1.0000   1.0000   1.0000   1.0000
     1.0000   1.0000   1.0000   1.0000   1.0000   1.0000   1.0000   1.0000
     1.0000   1.0000   1.0000   1.0000   1.0000   1.0000   1.0000   1.0000
     1.0000   1.0000   0.0000   0.0000   0.0000   0.0000   0.0000

     the Fermi energy is     8.4918 ev

     WARNING: integrated charge=    52.00017861, expected=    52.00000000

!    total energy              =   -1006.57074857 Ry
     estimated scf accuracy    <          9.2E-10 Ry
     smearing contrib. (-TS)   =       0.00000183 Ry
     internal energy E=F+TS    =   -1006.57075040 Ry

     The total energy is F=E-TS. E is the sum of the following terms:
     one-electron contribution =    -820.90988487 Ry
     hartree contribution      =     430.98884455 Ry
     xc contribution           =     -99.41055149 Ry
     ewald contribution        =    -498.20638284 Ry
     one-center paw contrib.   =     -19.03277575 Ry
      -> PAW hartree energy AE =      52.18831357 Ry
      -> PAW hartree energy PS =     -51.94216197 Ry
      -> PAW xc energy AE      =     -33.32165074 Ry
      -> PAW xc energy PS      =      14.04272339 Ry
      -> total E_H with PAW    =     431.23499615 Ry
      -> total E_XC with PAW   =    -118.68947883 Ry

     convergence has been achieved in  10 iterations

     Forces acting on atoms (cartesian axes, Ry/au):

     atom    1 type  2   force =     0.00000000    0.00000000   -0.00014483
     atom    2 type  2   force =     0.00000000    0.00000000   -0.00014483
     atom    3 type  1   force =     0.00000000    0.00000000    0.00014483
     atom    4 type  1   force =    -0.00000000   -0.00000000    0.00014483
     The non-local contrib.  to forces
     atom    1 type  2   force =     0.00000000    0.00000000   -0.01185423
     atom    2 type  2   force =     0.00000000   -0.00000000   -0.01185423
     atom    3 type  1   force =     0.00000000   -0.00000000    0.00478558
     atom    4 type  1   force =     0.00000000   -0.00000000    0.00478558
     The ionic contribution  to forces
     atom    1 type  2   force =    -0.00000059    0.00000034    0.08053459
     atom    2 type  2   force =     0.00000059   -0.00000034    0.08053459
     atom    3 type  1   force =    -0.00000051    0.00000030   -0.08053459
     atom    4 type  1   force =     0.00000051   -0.00000030   -0.08053459
     The local contribution  to forces
     atom    1 type  2   force =    -0.00000989    0.00000571   -0.06881648
     atom    2 type  2   force =     0.00002967   -0.00001713   -0.06881708
     atom    3 type  1   force =    -0.00000058    0.00000034    0.07597079
     atom    4 type  1   force =     0.00000174   -0.00000101    0.07597177
     The core correction contribution to forces
     atom    1 type  2   force =     0.00000000    0.00000000    0.00000000
     atom    2 type  2   force =     0.00000000    0.00000000    0.00000000
     atom    3 type  1   force =    -0.00000000    0.00000000   -0.00007005
     atom    4 type  1   force =     0.00000000   -0.00000000   -0.00007005
     The Hubbard contrib.    to forces
     atom    1 type  2   force =     0.00000000    0.00000000    0.00000000
     atom    2 type  2   force =     0.00000000    0.00000000    0.00000000
     atom    3 type  1   force =     0.00000000    0.00000000    0.00000000
     atom    4 type  1   force =     0.00000000    0.00000000    0.00000000
     The SCF correction term to forces
     atom    1 type  2   force =    -0.00000000    0.00000000   -0.00000480
     atom    2 type  2   force =     0.00000000   -0.00000000   -0.00000480
     atom    3 type  1   force =    -0.00000000    0.00000000   -0.00000378
     atom    4 type  1   force =    -0.00000000    0.00000000   -0.00000378

     Total force =     0.000290     Total SCF correction =     0.000009


     Computing stress (Cartesian axis) and pressure

          total   stress  (Ry/bohr**3)                   (kbar)     P=      -26.08
  -0.00018003  -0.00000000  -0.00000000          -26.48       -0.00       -0.00
  -0.00000000  -0.00018003  -0.00000000           -0.00      -26.48       -0.00
  -0.00000000  -0.00000000  -0.00017184           -0.00       -0.00      -25.28

     kinetic stress (kbar)  32925.46      0.00     -0.00
                                0.00  32925.46      0.00
                               -0.00      0.00  32951.85

     local   stress (kbar)  -7501.02     -0.00     -0.00
                               -0.00  -7501.02      0.00
                               -0.00      0.00 -11363.78

     nonloc. stress (kbar)   -707.03      0.00      0.00
                                0.00   -707.03     -0.00
                                0.00     -0.00   -718.32

     hartree stress (kbar)  61648.87     -0.00     -0.00
                               -0.00  61648.87      0.00
                               -0.00      0.00  63488.30

     exc-cor stress (kbar) -13382.49      0.00     -0.00
                                0.00 -13382.49      0.00
                               -0.00      0.00 -13382.62

     corecor stress (kbar)   -367.93     -0.00      0.00
                               -0.00   -367.93     -0.00
                                0.00     -0.00   -367.96

     ewald   stress (kbar) -72642.33      0.00      0.00
                                0.00 -72642.33     -0.00
                                0.00     -0.00 -70632.75

     hubbard stress (kbar)      0.00      0.00      0.00
                                0.00      0.00      0.00
                                0.00      0.00      0.00

     DFT-D   stress (kbar)      0.00      0.00      0.00
                                0.00      0.00      0.00
                                0.00      0.00      0.00

     XDM     stress (kbar)      0.00      0.00      0.00
                                0.00      0.00      0.00
                                0.00      0.00      0.00

     dft-nl  stress (kbar)      0.00      0.00      0.00
                                0.00      0.00      0.00
                                0.00      0.00      0.00

     TS-vdW  stress (kbar)      0.00      0.00      0.00
                                0.00      0.00      0.00
                                0.00      0.00      0.00

     MDB     stress (kbar)      0.00      0.00      0.00
                                0.00      0.00      0.00
                                0.00      0.00      0.00

     3D-RISM stress (kbar)      0.00      0.00      0.00
                                0.00      0.00      0.00
                                0.00      0.00      0.00


     Writing all to output data dir ./temp_hexag/aiida.save/ :
     XML data file, charge density, pseudopotentials, collected wavefunctions

     init_run     :    195.92s CPU      9.06s WALL (       1 calls)
     electrons    :   4826.67s CPU    228.10s WALL (       1 calls)
     forces       :     93.37s CPU      4.02s WALL (       1 calls)
     stress       :     56.44s CPU      2.98s WALL (       1 calls)

     Called by init_run:
     wfcinit      :    191.70s CPU      8.58s WALL (       1 calls)
     wfcinit:atom :      1.73s CPU      0.10s WALL (      95 calls)
     wfcinit:wfcr :    185.13s CPU      8.12s WALL (      95 calls)
     potinit      :      1.36s CPU      0.08s WALL (       1 calls)
     hinit0       :      1.28s CPU      0.23s WALL (       1 calls)

     Called by electrons:
     c_bands      :   4102.49s CPU    195.94s WALL (      10 calls)
     sum_band     :    696.86s CPU     30.18s WALL (      10 calls)
     v_of_rho     :      6.33s CPU      0.28s WALL (      11 calls)
     v_h          :      0.39s CPU      0.04s WALL (      11 calls)
     v_xc         :      6.51s CPU      0.27s WALL (      13 calls)
     newd         :     11.68s CPU      1.23s WALL (      11 calls)
     PAW_pot      :      9.58s CPU      0.42s WALL (      11 calls)
     mix_rho      :      1.00s CPU      0.07s WALL (      10 calls)

     Called by c_bands:
     init_us_2    :     27.78s CPU      1.71s WALL (    2185 calls)
     cegterg      :   4024.97s CPU    192.38s WALL (     950 calls)

     Called by sum_band:
     sum_band:wei :      0.23s CPU      0.02s WALL (      10 calls)
     sum_band:loo :    691.07s CPU     28.91s WALL (      10 calls)
     sum_band:buf :      2.31s CPU      0.11s WALL (     950 calls)
     sum_band:ini :     11.44s CPU      0.57s WALL (     950 calls)
     sum_band:cal :    120.11s CPU      4.60s WALL (     950 calls)
     sum_band:bec :     22.89s CPU      0.99s WALL (     950 calls)
     addusdens    :      4.93s CPU      1.14s WALL (      10 calls)
                                        0.00s GPU  (      10 calls)
     addusd:skk   :      0.00s CPU      0.00s WALL (      20 calls)
                                        0.00s GPU  (      20 calls)

     Called by *egterg:
     cdiaghg      :     44.88s CPU      2.86s WALL (    3579 calls)
     cegterg:over :    306.16s CPU     12.80s WALL (    2629 calls)
     cegterg:upda :    124.86s CPU      9.33s WALL (    2629 calls)
     cegterg:last :    106.34s CPU     15.30s WALL (    1993 calls)
     h_psi        :   3171.51s CPU    137.26s WALL (    3674 calls)
     s_psi        :    253.72s CPU     12.54s WALL (    3674 calls)
     g_psi        :     23.27s CPU      1.18s WALL (    2629 calls)

     Called by h_psi:
     h_psi:calbec :    289.33s CPU     11.46s WALL (    3674 calls)
     vloc_psi     :   2561.38s CPU    111.81s WALL (    3674 calls)
     add_vuspsi   :    285.92s CPU     12.17s WALL (    3674 calls)

     General routines
     calbec       :    459.34s CPU     18.09s WALL (    5099 calls)
     fft          :      6.87s CPU      0.26s WALL (     166 calls)
     ffts         :      0.26s CPU      0.01s WALL (      21 calls)
     fftw         :   1144.02s CPU     52.00s WALL (  179160 calls)
     interpolate  :      0.73s CPU      0.03s WALL (      11 calls)

     Parallel routines

     PAW routines
     PAW_pot      :      9.58s CPU      0.42s WALL (      11 calls)
     PAW_symme    :      0.00s CPU      0.00s WALL (      21 calls)

     PWSCF        :      1h26m CPU   4m 6.00s WALL


   This run was terminated on:  23:12:44  11Jun2024            

=------------------------------------------------------------------------------=
   JOB DONE.
=------------------------------------------------------------------------------=
