
     Program PWSCF v.7.3.1 starts on 12Jun2024 at 14:20:44 

     This program is part of the open-source Quantum ESPRESSO suite
     for quantum simulation of materials; please cite
         "P. Giannozzi et al., J. Phys.:Condens. Matter 21 395502 (2009);
         "P. Giannozzi et al., J. Phys.:Condens. Matter 29 465901 (2017);
         "P. Giannozzi et al., J. Chem. Phys. 152 154105 (2020);
          URL http://www.quantum-espresso.org", 
     in publications or presentations arising from this work. More details at
     http://www.quantum-espresso.org/quote

     Parallel version (MPI & OpenMP), running on      24 processor cores
     Number of MPI processes:                 1
     Threads/MPI process:                    24

     MPI processes distributed on     1 nodes
     4804 MiB available memory on the printing compute node when the environment starts

     Waiting for input...
     Reading input from standard input

     Current dimensions of program PWSCF are:
     Max number of different atomic species (ntypx) = 10
     Max number of k-points (npk) =  40000
     Max angular momentum in pseudopotentials (lmaxx) =  4
     file O.pbe-n-kjpaw_psl.0.1.UPF: wavefunction(s)  2P renormalized
     Message from routine setup:
     using ibrav=0 with symmetry is DISCOURAGED, use correct ibrav instead

     Subspace diagonalization in iterative solution of the eigenvalue problem:
     a serial algorithm will be used


     G-vector sticks info
     --------------------
     sticks:   dense  smooth     PW     G-vecs:    dense   smooth      PW
     Sum         511     253     85                15267     5359    1039

     Using Slab Decomposition



     bravais-lattice index     =            0
     lattice parameter (alat)  =       6.1177  a.u.
     unit-cell volume          =     319.8518 (a.u.)^3
     number of atoms/cell      =            4
     number of atomic types    =            2
     number of electrons       =        52.00
     number of Kohn-Sham states=           31
     kinetic-energy cutoff     =      25.0000  Ry
     charge density cutoff     =     200.0000  Ry
     scf convergence threshold =      2.0E-08
     mixing beta               =       0.4000
     number of iterations used =            8  plain     mixing
     Exchange-correlation= SLA  PW   PBE  PBE
                           (   1   4   3   4   0   0   0)

     celldm(1)=   6.117707  celldm(2)=   0.000000  celldm(3)=   0.000000
     celldm(4)=   0.000000  celldm(5)=   0.000000  celldm(6)=   0.000000

     crystal axes: (cart. coord. in units of alat)
               a(1) = (   1.000000   0.000000   0.000000 )  
               a(2) = (  -0.500000   0.866025   0.000000 )  
               a(3) = (   0.000000   0.000000   1.613066 )  

     reciprocal axes: (cart. coord. in units 2 pi/alat)
               b(1) = (  1.000000  0.577350 -0.000000 )  
               b(2) = (  0.000000  1.154701  0.000000 )  
               b(3) = (  0.000000 -0.000000  0.619937 )  


     PseudoPot. # 1 for O  read from file:
     ../SSSP_1.3.0_PBE_efficiency/O.pbe-n-kjpaw_psl.0.1.UPF
     MD5 check sum: 0234752ac141de4415c5fc33072bef88
     Pseudo is Projector augmented-wave + core cor, Zval =  6.0
     Generated using "atomic" code by A. Dal Corso  v.5.0.99 svn rev. 10869
     Shape of augmentation charge: BESSEL
     Using radial grid of 1095 points,  4 beta functions with: 
                l(1) =   0
                l(2) =   0
                l(3) =   1
                l(4) =   1
     Q(r) pseudized with 0 coefficients 


     PseudoPot. # 2 for Zn read from file:
     ../SSSP_1.3.0_PBE_efficiency/Zn_pbe_v1.uspp.F.UPF
     MD5 check sum: df62231357ef9e81f77b2b3087fa5675
     Pseudo is Ultrasoft, Zval = 20.0
     Generated by new atomic code, or converted to UPF format
     Using radial grid of  943 points,  6 beta functions with: 
                l(1) =   0
                l(2) =   0
                l(3) =   1
                l(4) =   1
                l(5) =   2
                l(6) =   2
     Q(r) pseudized with  8 coefficients,  rinner =    1.100   1.100   1.100
                                                       1.100   1.100

     atomic species   valence    mass     pseudopotential
     O                 6.00    15.99940     O ( 1.00)
     Zn               20.00    65.38000     Zn( 1.00)

     12 Sym. Ops. (no inversion) found ( 6 have fractional translation)


                                    s                        frac. trans.

      isym =  1     identity                                     

 cryst.   s( 1) = (     1          0          0      )
                  (     0          1          0      )
                  (     0          0          1      )

 cart.    s( 1) = (  1.0000000  0.0000000  0.0000000 )
                  (  0.0000000  1.0000000  0.0000000 )
                  (  0.0000000  0.0000000  1.0000000 )


      isym =  2     180 deg rotation - cart. axis [0,0,1]        

 cryst.   s( 2) = (    -1          0          0      )    f =(  0.0000000 )
                  (     0         -1          0      )       ( -0.0000000 )
                  (     0          0          1      )       (  0.5000000 )

 cart.    s( 2) = ( -1.0000000  0.0000000  0.0000000 )    f =(  0.0000000 )
                  (  0.0000000 -1.0000000  0.0000000 )       ( -0.0000000 )
                  (  0.0000000  0.0000000  1.0000000 )       (  0.8065331 )


      isym =  3      60 deg rotation - cryst. axis [0,0,1]       

 cryst.   s( 3) = (     1          1          0      )    f =( -0.0000000 )
                  (    -1          0          0      )       (  0.0000000 )
                  (     0          0          1      )       (  0.5000000 )

 cart.    s( 3) = (  0.5000000 -0.8660254  0.0000000 )    f =( -0.0000000 )
                  (  0.8660254  0.5000000  0.0000000 )       (  0.0000000 )
                  (  0.0000000  0.0000000  1.0000000 )       (  0.8065331 )


      isym =  4      60 deg rotation - cryst. axis [0,0,-1]      

 cryst.   s( 4) = (     0         -1          0      )    f =(  0.0000000 )
                  (     1          1          0      )       (  0.0000000 )
                  (     0          0          1      )       (  0.5000000 )

 cart.    s( 4) = (  0.5000000  0.8660254  0.0000000 )    f =( -0.0000000 )
                  ( -0.8660254  0.5000000  0.0000000 )       (  0.0000000 )
                  (  0.0000000  0.0000000  1.0000000 )       (  0.8065331 )


      isym =  5     120 deg rotation - cryst. axis [0,0,1]       

 cryst.   s( 5) = (     0          1          0      )
                  (    -1         -1          0      )
                  (     0          0          1      )

 cart.    s( 5) = ( -0.5000000 -0.8660254  0.0000000 )
                  (  0.8660254 -0.5000000  0.0000000 )
                  (  0.0000000  0.0000000  1.0000000 )


      isym =  6     120 deg rotation - cryst. axis [0,0,-1]      

 cryst.   s( 6) = (    -1         -1          0      )
                  (     1          0          0      )
                  (     0          0          1      )

 cart.    s( 6) = ( -0.5000000  0.8660254  0.0000000 )
                  ( -0.8660254 -0.5000000  0.0000000 )
                  (  0.0000000  0.0000000  1.0000000 )


      isym =  7     inv. 180 deg rotation - cart. axis [0,1,0]   

 cryst.   s( 7) = (     1          0          0      )    f =( -0.0000000 )
                  (    -1         -1          0      )       ( -0.0000000 )
                  (     0          0          1      )       (  0.5000000 )

 cart.    s( 7) = (  1.0000000  0.0000000  0.0000000 )    f =( -0.0000000 )
                  (  0.0000000 -1.0000000  0.0000000 )       ( -0.0000000 )
                  (  0.0000000  0.0000000  1.0000000 )       (  0.8065331 )


      isym =  8     inv. 180 deg rotation - cart. axis [1,0,0]   

 cryst.   s( 8) = (    -1          0          0      )
                  (     1          1          0      )
                  (     0          0          1      )

 cart.    s( 8) = ( -1.0000000  0.0000000  0.0000000 )
                  (  0.0000000  1.0000000  0.0000000 )
                  (  0.0000000  0.0000000  1.0000000 )


      isym =  9     inv. 180 deg rotation - cryst. axis [1,-1,0] 

 cryst.   s( 9) = (     0          1          0      )    f =(  0.0000000 )
                  (     1          0          0      )       (  0.0000000 )
                  (     0          0          1      )       (  0.5000000 )

 cart.    s( 9) = ( -0.5000000  0.8660254  0.0000000 )    f =(  0.0000000 )
                  (  0.8660254  0.5000000  0.0000000 )       (  0.0000000 )
                  (  0.0000000  0.0000000  1.0000000 )       (  0.8065331 )


      isym = 10     inv. 180 deg rotation - cryst. axis [2,1,0]  

 cryst.   s(10) = (    -1         -1          0      )    f =(  0.0000000 )
                  (     0          1          0      )       (  0.0000000 )
                  (     0          0          1      )       (  0.5000000 )

 cart.    s(10) = ( -0.5000000 -0.8660254  0.0000000 )    f =( -0.0000000 )
                  ( -0.8660254  0.5000000  0.0000000 )       (  0.0000000 )
                  (  0.0000000  0.0000000  1.0000000 )       (  0.8065331 )


      isym = 11     inv. 180 deg rotation - cryst. axis [0,1,0]  

 cryst.   s(11) = (     1          1          0      )
                  (     0         -1          0      )
                  (     0          0          1      )

 cart.    s(11) = (  0.5000000  0.8660254  0.0000000 )
                  (  0.8660254 -0.5000000  0.0000000 )
                  (  0.0000000  0.0000000  1.0000000 )


      isym = 12     inv. 180 deg rotation - cryst. axis [1,1,0]  

 cryst.   s(12) = (     0         -1          0      )
                  (    -1          0          0      )
                  (     0          0          1      )

 cart.    s(12) = (  0.5000000 -0.8660254  0.0000000 )
                  ( -0.8660254 -0.5000000  0.0000000 )
                  (  0.0000000  0.0000000  1.0000000 )


   Cartesian axes

     site n.     atom                  positions (alat units)
         1        Zn     tau(   1) = (   0.5000000   0.2886751   0.8074875  )
         2        Zn     tau(   2) = (  -0.0000000   0.5773503   0.0009545  )
         3        O      tau(   3) = (   0.5000000   0.2886751   1.4190438  )
         4        O      tau(   4) = (  -0.0000000   0.5773503   0.6125107  )

   Crystallographic axes

     site n.     atom                  positions (cryst. coord.)
         1        Zn     tau(   1) = (  0.6666667  0.3333333  0.5005917  )
         2        Zn     tau(   2) = (  0.3333333  0.6666667  0.0005917  )
         3        O      tau(   3) = (  0.6666667  0.3333333  0.8797183  )
         4        O      tau(   4) = (  0.3333333  0.6666667  0.3797183  )

     number of k points=    95  Marzari-Vanderbilt smearing, width (Ry)=  0.0073
                       cart. coord. in units 2pi/alat
        k(    1) = (   0.0000000   0.0000000   0.0000000), wk =   0.0017361
        k(    2) = (   0.0000000   0.0000000   0.0774922), wk =   0.0034722
        k(    3) = (   0.0000000   0.0000000   0.1549843), wk =   0.0034722
        k(    4) = (   0.0000000   0.0000000   0.2324765), wk =   0.0034722
        k(    5) = (   0.0000000   0.0000000  -0.3099687), wk =   0.0017361
        k(    6) = (   0.0000000   0.0962250   0.0000000), wk =   0.0104167
        k(    7) = (   0.0000000   0.0962250   0.0774922), wk =   0.0208333
        k(    8) = (   0.0000000   0.0962250   0.1549843), wk =   0.0208333
        k(    9) = (   0.0000000   0.0962250   0.2324765), wk =   0.0208333
        k(   10) = (   0.0000000   0.0962250  -0.3099687), wk =   0.0104167
        k(   11) = (   0.0000000   0.1924501   0.0000000), wk =   0.0104167
        k(   12) = (   0.0000000   0.1924501   0.0774922), wk =   0.0208333
        k(   13) = (   0.0000000   0.1924501   0.1549843), wk =   0.0208333
        k(   14) = (   0.0000000   0.1924501   0.2324765), wk =   0.0208333
        k(   15) = (   0.0000000   0.1924501  -0.3099687), wk =   0.0104167
        k(   16) = (   0.0000000   0.2886751   0.0000000), wk =   0.0104167
        k(   17) = (   0.0000000   0.2886751   0.0774922), wk =   0.0208333
        k(   18) = (   0.0000000   0.2886751   0.1549843), wk =   0.0208333
        k(   19) = (   0.0000000   0.2886751   0.2324765), wk =   0.0208333
        k(   20) = (   0.0000000   0.2886751  -0.3099687), wk =   0.0104167
        k(   21) = (   0.0000000   0.3849002   0.0000000), wk =   0.0104167
        k(   22) = (   0.0000000   0.3849002   0.0774922), wk =   0.0208333
        k(   23) = (   0.0000000   0.3849002   0.1549843), wk =   0.0208333
        k(   24) = (   0.0000000   0.3849002   0.2324765), wk =   0.0208333
        k(   25) = (   0.0000000   0.3849002  -0.3099687), wk =   0.0104167
        k(   26) = (   0.0000000   0.4811252   0.0000000), wk =   0.0104167
        k(   27) = (   0.0000000   0.4811252   0.0774922), wk =   0.0208333
        k(   28) = (   0.0000000   0.4811252   0.1549843), wk =   0.0208333
        k(   29) = (   0.0000000   0.4811252   0.2324765), wk =   0.0208333
        k(   30) = (   0.0000000   0.4811252  -0.3099687), wk =   0.0104167
        k(   31) = (   0.0000000  -0.5773503   0.0000000), wk =   0.0052083
        k(   32) = (   0.0000000  -0.5773503   0.0774922), wk =   0.0104167
        k(   33) = (   0.0000000  -0.5773503   0.1549843), wk =   0.0104167
        k(   34) = (   0.0000000  -0.5773503   0.2324765), wk =   0.0104167
        k(   35) = (   0.0000000  -0.5773503  -0.3099687), wk =   0.0052083
        k(   36) = (   0.0833333   0.1443376   0.0000000), wk =   0.0104167
        k(   37) = (   0.0833333   0.1443376   0.0774922), wk =   0.0208333
        k(   38) = (   0.0833333   0.1443376   0.1549843), wk =   0.0208333
        k(   39) = (   0.0833333   0.1443376   0.2324765), wk =   0.0208333
        k(   40) = (   0.0833333   0.1443376  -0.3099687), wk =   0.0104167
        k(   41) = (   0.0833333   0.2405626   0.0000000), wk =   0.0208333
        k(   42) = (   0.0833333   0.2405626   0.0774922), wk =   0.0416667
        k(   43) = (   0.0833333   0.2405626   0.1549843), wk =   0.0416667
        k(   44) = (   0.0833333   0.2405626   0.2324765), wk =   0.0416667
        k(   45) = (   0.0833333   0.2405626  -0.3099687), wk =   0.0208333
        k(   46) = (   0.0833333   0.3367877   0.0000000), wk =   0.0208333
        k(   47) = (   0.0833333   0.3367877   0.0774922), wk =   0.0416667
        k(   48) = (   0.0833333   0.3367877   0.1549843), wk =   0.0416667
        k(   49) = (   0.0833333   0.3367877   0.2324765), wk =   0.0416667
        k(   50) = (   0.0833333   0.3367877  -0.3099687), wk =   0.0208333
        k(   51) = (   0.0833333   0.4330127   0.0000000), wk =   0.0208333
        k(   52) = (   0.0833333   0.4330127   0.0774922), wk =   0.0416667
        k(   53) = (   0.0833333   0.4330127   0.1549843), wk =   0.0416667
        k(   54) = (   0.0833333   0.4330127   0.2324765), wk =   0.0416667
        k(   55) = (   0.0833333   0.4330127  -0.3099687), wk =   0.0208333
        k(   56) = (   0.0833333   0.5292377   0.0000000), wk =   0.0208333
        k(   57) = (   0.0833333   0.5292377   0.0774922), wk =   0.0416667
        k(   58) = (   0.0833333   0.5292377   0.1549843), wk =   0.0416667
        k(   59) = (   0.0833333   0.5292377   0.2324765), wk =   0.0416667
        k(   60) = (   0.0833333   0.5292377  -0.3099687), wk =   0.0208333
        k(   61) = (   0.1666667   0.2886751   0.0000000), wk =   0.0104167
        k(   62) = (   0.1666667   0.2886751   0.0774922), wk =   0.0208333
        k(   63) = (   0.1666667   0.2886751   0.1549843), wk =   0.0208333
        k(   64) = (   0.1666667   0.2886751   0.2324765), wk =   0.0208333
        k(   65) = (   0.1666667   0.2886751  -0.3099687), wk =   0.0104167
        k(   66) = (   0.1666667   0.3849002   0.0000000), wk =   0.0208333
        k(   67) = (   0.1666667   0.3849002   0.0774922), wk =   0.0416667
        k(   68) = (   0.1666667   0.3849002   0.1549843), wk =   0.0416667
        k(   69) = (   0.1666667   0.3849002   0.2324765), wk =   0.0416667
        k(   70) = (   0.1666667   0.3849002  -0.3099687), wk =   0.0208333
        k(   71) = (   0.1666667   0.4811252   0.0000000), wk =   0.0208333
        k(   72) = (   0.1666667   0.4811252   0.0774922), wk =   0.0416667
        k(   73) = (   0.1666667   0.4811252   0.1549843), wk =   0.0416667
        k(   74) = (   0.1666667   0.4811252   0.2324765), wk =   0.0416667
        k(   75) = (   0.1666667   0.4811252  -0.3099687), wk =   0.0208333
        k(   76) = (   0.1666667   0.5773503   0.0000000), wk =   0.0104167
        k(   77) = (   0.1666667   0.5773503   0.0774922), wk =   0.0208333
        k(   78) = (   0.1666667   0.5773503   0.1549843), wk =   0.0208333
        k(   79) = (   0.1666667   0.5773503   0.2324765), wk =   0.0208333
        k(   80) = (   0.1666667   0.5773503  -0.3099687), wk =   0.0104167
        k(   81) = (   0.2500000   0.4330127   0.0000000), wk =   0.0104167
        k(   82) = (   0.2500000   0.4330127   0.0774922), wk =   0.0208333
        k(   83) = (   0.2500000   0.4330127   0.1549843), wk =   0.0208333
        k(   84) = (   0.2500000   0.4330127   0.2324765), wk =   0.0208333
        k(   85) = (   0.2500000   0.4330127  -0.3099687), wk =   0.0104167
        k(   86) = (   0.2500000   0.5292377   0.0000000), wk =   0.0208333
        k(   87) = (   0.2500000   0.5292377   0.0774922), wk =   0.0416667
        k(   88) = (   0.2500000   0.5292377   0.1549843), wk =   0.0416667
        k(   89) = (   0.2500000   0.5292377   0.2324765), wk =   0.0416667
        k(   90) = (   0.2500000   0.5292377  -0.3099687), wk =   0.0208333
        k(   91) = (   0.3333333   0.5773503   0.0000000), wk =   0.0034722
        k(   92) = (   0.3333333   0.5773503   0.0774922), wk =   0.0069444
        k(   93) = (   0.3333333   0.5773503   0.1549843), wk =   0.0069444
        k(   94) = (   0.3333333   0.5773503   0.2324765), wk =   0.0069444
        k(   95) = (   0.3333333   0.5773503  -0.3099687), wk =   0.0034722

                       cryst. coord.
        k(    1) = (   0.0000000   0.0000000   0.0000000), wk =   0.0017361
        k(    2) = (   0.0000000   0.0000000   0.1250000), wk =   0.0034722
        k(    3) = (   0.0000000   0.0000000   0.2500000), wk =   0.0034722
        k(    4) = (   0.0000000   0.0000000   0.3750000), wk =   0.0034722
        k(    5) = (   0.0000000   0.0000000  -0.5000000), wk =   0.0017361
        k(    6) = (   0.0000000   0.0833333   0.0000000), wk =   0.0104167
        k(    7) = (   0.0000000   0.0833333   0.1250000), wk =   0.0208333
        k(    8) = (   0.0000000   0.0833333   0.2500000), wk =   0.0208333
        k(    9) = (   0.0000000   0.0833333   0.3750000), wk =   0.0208333
        k(   10) = (   0.0000000   0.0833333  -0.5000000), wk =   0.0104167
        k(   11) = (   0.0000000   0.1666667   0.0000000), wk =   0.0104167
        k(   12) = (   0.0000000   0.1666667   0.1250000), wk =   0.0208333
        k(   13) = (   0.0000000   0.1666667   0.2500000), wk =   0.0208333
        k(   14) = (   0.0000000   0.1666667   0.3750000), wk =   0.0208333
        k(   15) = (   0.0000000   0.1666667  -0.5000000), wk =   0.0104167
        k(   16) = (   0.0000000   0.2500000   0.0000000), wk =   0.0104167
        k(   17) = (   0.0000000   0.2500000   0.1250000), wk =   0.0208333
        k(   18) = (   0.0000000   0.2500000   0.2500000), wk =   0.0208333
        k(   19) = (   0.0000000   0.2500000   0.3750000), wk =   0.0208333
        k(   20) = (   0.0000000   0.2500000  -0.5000000), wk =   0.0104167
        k(   21) = (   0.0000000   0.3333333   0.0000000), wk =   0.0104167
        k(   22) = (   0.0000000   0.3333333   0.1250000), wk =   0.0208333
        k(   23) = (   0.0000000   0.3333333   0.2500000), wk =   0.0208333
        k(   24) = (   0.0000000   0.3333333   0.3750000), wk =   0.0208333
        k(   25) = (   0.0000000   0.3333333  -0.5000000), wk =   0.0104167
        k(   26) = (   0.0000000   0.4166667   0.0000000), wk =   0.0104167
        k(   27) = (   0.0000000   0.4166667   0.1250000), wk =   0.0208333
        k(   28) = (   0.0000000   0.4166667   0.2500000), wk =   0.0208333
        k(   29) = (   0.0000000   0.4166667   0.3750000), wk =   0.0208333
        k(   30) = (   0.0000000   0.4166667  -0.5000000), wk =   0.0104167
        k(   31) = (   0.0000000  -0.5000000   0.0000000), wk =   0.0052083
        k(   32) = (   0.0000000  -0.5000000   0.1250000), wk =   0.0104167
        k(   33) = (   0.0000000  -0.5000000   0.2500000), wk =   0.0104167
        k(   34) = (   0.0000000  -0.5000000   0.3750000), wk =   0.0104167
        k(   35) = (   0.0000000  -0.5000000  -0.5000000), wk =   0.0052083
        k(   36) = (   0.0833333   0.0833333   0.0000000), wk =   0.0104167
        k(   37) = (   0.0833333   0.0833333   0.1250000), wk =   0.0208333
        k(   38) = (   0.0833333   0.0833333   0.2500000), wk =   0.0208333
        k(   39) = (   0.0833333   0.0833333   0.3750000), wk =   0.0208333
        k(   40) = (   0.0833333   0.0833333  -0.5000000), wk =   0.0104167
        k(   41) = (   0.0833333   0.1666667   0.0000000), wk =   0.0208333
        k(   42) = (   0.0833333   0.1666667   0.1250000), wk =   0.0416667
        k(   43) = (   0.0833333   0.1666667   0.2500000), wk =   0.0416667
        k(   44) = (   0.0833333   0.1666667   0.3750000), wk =   0.0416667
        k(   45) = (   0.0833333   0.1666667  -0.5000000), wk =   0.0208333
        k(   46) = (   0.0833333   0.2500000   0.0000000), wk =   0.0208333
        k(   47) = (   0.0833333   0.2500000   0.1250000), wk =   0.0416667
        k(   48) = (   0.0833333   0.2500000   0.2500000), wk =   0.0416667
        k(   49) = (   0.0833333   0.2500000   0.3750000), wk =   0.0416667
        k(   50) = (   0.0833333   0.2500000  -0.5000000), wk =   0.0208333
        k(   51) = (   0.0833333   0.3333333   0.0000000), wk =   0.0208333
        k(   52) = (   0.0833333   0.3333333   0.1250000), wk =   0.0416667
        k(   53) = (   0.0833333   0.3333333   0.2500000), wk =   0.0416667
        k(   54) = (   0.0833333   0.3333333   0.3750000), wk =   0.0416667
        k(   55) = (   0.0833333   0.3333333  -0.5000000), wk =   0.0208333
        k(   56) = (   0.0833333   0.4166667   0.0000000), wk =   0.0208333
        k(   57) = (   0.0833333   0.4166667   0.1250000), wk =   0.0416667
        k(   58) = (   0.0833333   0.4166667   0.2500000), wk =   0.0416667
        k(   59) = (   0.0833333   0.4166667   0.3750000), wk =   0.0416667
        k(   60) = (   0.0833333   0.4166667  -0.5000000), wk =   0.0208333
        k(   61) = (   0.1666667   0.1666667   0.0000000), wk =   0.0104167
        k(   62) = (   0.1666667   0.1666667   0.1250000), wk =   0.0208333
        k(   63) = (   0.1666667   0.1666667   0.2500000), wk =   0.0208333
        k(   64) = (   0.1666667   0.1666667   0.3750000), wk =   0.0208333
        k(   65) = (   0.1666667   0.1666667  -0.5000000), wk =   0.0104167
        k(   66) = (   0.1666667   0.2500000   0.0000000), wk =   0.0208333
        k(   67) = (   0.1666667   0.2500000   0.1250000), wk =   0.0416667
        k(   68) = (   0.1666667   0.2500000   0.2500000), wk =   0.0416667
        k(   69) = (   0.1666667   0.2500000   0.3750000), wk =   0.0416667
        k(   70) = (   0.1666667   0.2500000  -0.5000000), wk =   0.0208333
        k(   71) = (   0.1666667   0.3333333   0.0000000), wk =   0.0208333
        k(   72) = (   0.1666667   0.3333333   0.1250000), wk =   0.0416667
        k(   73) = (   0.1666667   0.3333333   0.2500000), wk =   0.0416667
        k(   74) = (   0.1666667   0.3333333   0.3750000), wk =   0.0416667
        k(   75) = (   0.1666667   0.3333333  -0.5000000), wk =   0.0208333
        k(   76) = (   0.1666667   0.4166667   0.0000000), wk =   0.0104167
        k(   77) = (   0.1666667   0.4166667   0.1250000), wk =   0.0208333
        k(   78) = (   0.1666667   0.4166667   0.2500000), wk =   0.0208333
        k(   79) = (   0.1666667   0.4166667   0.3750000), wk =   0.0208333
        k(   80) = (   0.1666667   0.4166667  -0.5000000), wk =   0.0104167
        k(   81) = (   0.2500000   0.2500000   0.0000000), wk =   0.0104167
        k(   82) = (   0.2500000   0.2500000   0.1250000), wk =   0.0208333
        k(   83) = (   0.2500000   0.2500000   0.2500000), wk =   0.0208333
        k(   84) = (   0.2500000   0.2500000   0.3750000), wk =   0.0208333
        k(   85) = (   0.2500000   0.2500000  -0.5000000), wk =   0.0104167
        k(   86) = (   0.2500000   0.3333333   0.0000000), wk =   0.0208333
        k(   87) = (   0.2500000   0.3333333   0.1250000), wk =   0.0416667
        k(   88) = (   0.2500000   0.3333333   0.2500000), wk =   0.0416667
        k(   89) = (   0.2500000   0.3333333   0.3750000), wk =   0.0416667
        k(   90) = (   0.2500000   0.3333333  -0.5000000), wk =   0.0208333
        k(   91) = (   0.3333333   0.3333333   0.0000000), wk =   0.0034722
        k(   92) = (   0.3333333   0.3333333   0.1250000), wk =   0.0069444
        k(   93) = (   0.3333333   0.3333333   0.2500000), wk =   0.0069444
        k(   94) = (   0.3333333   0.3333333   0.3750000), wk =   0.0069444
        k(   95) = (   0.3333333   0.3333333  -0.5000000), wk =   0.0034722

     Dense  grid:    15267 G-vectors     FFT dimensions: (  27,  27,  48)

     Smooth grid:     5359 G-vectors     FFT dimensions: (  20,  20,  32)

     Dynamical RAM for                 wfc:       0.32 MB

     Dynamical RAM for     wfc (w. buffer):      30.65 MB

     Dynamical RAM for           str. fact:       0.47 MB

     Dynamical RAM for           local pot:       0.00 MB

     Dynamical RAM for          nlocal pot:       0.54 MB

     Dynamical RAM for                qrad:       2.27 MB

     Dynamical RAM for          rho,v,vnew:       1.50 MB

     Dynamical RAM for               rhoin:       0.50 MB

     Dynamical RAM for            rho*nmix:       3.73 MB

     Dynamical RAM for           G-vectors:       0.91 MB

     Dynamical RAM for          h,s,v(r/c):       0.18 MB

     Dynamical RAM for          <psi|beta>:       0.02 MB

     Dynamical RAM for                 psi:       0.64 MB

     Dynamical RAM for                hpsi:       0.64 MB

     Dynamical RAM for                spsi:       0.64 MB

     Dynamical RAM for      wfcinit/wfcrot:       0.73 MB

     Dynamical RAM for           addusdens:      43.80 MB

     Dynamical RAM for          addusforce:      44.39 MB

     Dynamical RAM for         addusstress:      46.82 MB

     Estimated static dynamical RAM per process >      38.87 MB

     Estimated max dynamical RAM per process >      89.42 MB

     Check: negative core charge=   -0.000022

     Initial potential from superposition of free atoms

     starting charge      51.9997, renormalised to      52.0000
     Starting wfcs are   34 randomized atomic wfcs
     Checking if some PAW data can be deallocated... 

     total cpu time spent up to now is       12.3 secs

     Self-consistent Calculation

     iteration #  1     ecut=    25.00 Ry     beta= 0.40
     Davidson diagonalization with overlap

---- Real-time Memory Report at c_bands before calling an iterative solver
            86 MiB given to the printing process from OS
             0 MiB allocation reported by mallinfo(arena+hblkhd)
          4757 MiB available memory on the node where the printing process lives
------------------
     ethr =  1.00E-02,  avg # of iterations =  3.0

     total cpu time spent up to now is       23.5 secs

     total energy              =   -1005.19061135 Ry
     estimated scf accuracy    <       0.62340295 Ry

     iteration #  2     ecut=    25.00 Ry     beta= 0.40
     Davidson diagonalization with overlap

---- Real-time Memory Report at c_bands before calling an iterative solver
           129 MiB given to the printing process from OS
             0 MiB allocation reported by mallinfo(arena+hblkhd)
          4740 MiB available memory on the node where the printing process lives
------------------
     ethr =  1.20E-03,  avg # of iterations =  2.0

     total cpu time spent up to now is       34.9 secs

     total energy              =   -1005.33648057 Ry
     estimated scf accuracy    <       0.07220733 Ry

     iteration #  3     ecut=    25.00 Ry     beta= 0.40
     Davidson diagonalization with overlap

---- Real-time Memory Report at c_bands before calling an iterative solver
           129 MiB given to the printing process from OS
             0 MiB allocation reported by mallinfo(arena+hblkhd)
          4736 MiB available memory on the node where the printing process lives
------------------
     ethr =  1.39E-04,  avg # of iterations =  2.2

     total cpu time spent up to now is       47.2 secs

     total energy              =   -1005.34369269 Ry
     estimated scf accuracy    <       0.01324633 Ry

     iteration #  4     ecut=    25.00 Ry     beta= 0.40
     Davidson diagonalization with overlap

---- Real-time Memory Report at c_bands before calling an iterative solver
           129 MiB given to the printing process from OS
             0 MiB allocation reported by mallinfo(arena+hblkhd)
          5024 MiB available memory on the node where the printing process lives
------------------
     ethr =  2.55E-05,  avg # of iterations =  2.7

     total cpu time spent up to now is       82.1 secs

     total energy              =   -1005.34431144 Ry
     estimated scf accuracy    <       0.00010695 Ry

     iteration #  5     ecut=    25.00 Ry     beta= 0.40
     Davidson diagonalization with overlap

---- Real-time Memory Report at c_bands before calling an iterative solver
           130 MiB given to the printing process from OS
             0 MiB allocation reported by mallinfo(arena+hblkhd)
          5021 MiB available memory on the node where the printing process lives
------------------
     ethr =  2.06E-07,  avg # of iterations =  4.1

     total cpu time spent up to now is      128.2 secs

     total energy              =   -1005.34433403 Ry
     estimated scf accuracy    <       0.00002233 Ry

     iteration #  6     ecut=    25.00 Ry     beta= 0.40
     Davidson diagonalization with overlap

---- Real-time Memory Report at c_bands before calling an iterative solver
           130 MiB given to the printing process from OS
             0 MiB allocation reported by mallinfo(arena+hblkhd)
          5016 MiB available memory on the node where the printing process lives
------------------
     ethr =  4.29E-08,  avg # of iterations =  2.0

     total cpu time spent up to now is      161.6 secs

     total energy              =   -1005.34434242 Ry
     estimated scf accuracy    <       0.00000387 Ry

     iteration #  7     ecut=    25.00 Ry     beta= 0.40
     Davidson diagonalization with overlap

---- Real-time Memory Report at c_bands before calling an iterative solver
           130 MiB given to the printing process from OS
             0 MiB allocation reported by mallinfo(arena+hblkhd)
          5018 MiB available memory on the node where the printing process lives
------------------
     ethr =  7.44E-09,  avg # of iterations =  2.0

     total cpu time spent up to now is      195.1 secs

     total energy              =   -1005.34434335 Ry
     estimated scf accuracy    <       0.00000002 Ry

     iteration #  8     ecut=    25.00 Ry     beta= 0.40
     Davidson diagonalization with overlap

---- Real-time Memory Report at c_bands before calling an iterative solver
           130 MiB given to the printing process from OS
             0 MiB allocation reported by mallinfo(arena+hblkhd)
          5017 MiB available memory on the node where the printing process lives
------------------
     ethr =  4.33E-11,  avg # of iterations =  2.0

     total cpu time spent up to now is      231.4 secs

     total energy              =   -1005.34434344 Ry
     estimated scf accuracy    <       0.00000003 Ry

     iteration #  9     ecut=    25.00 Ry     beta= 0.40
     Davidson diagonalization with overlap

---- Real-time Memory Report at c_bands before calling an iterative solver
           130 MiB given to the printing process from OS
             0 MiB allocation reported by mallinfo(arena+hblkhd)
          5018 MiB available memory on the node where the printing process lives
------------------
     ethr =  4.33E-11,  avg # of iterations =  2.0

     total cpu time spent up to now is      264.1 secs

     End of self-consistent calculation

          k = 0.0000 0.0000 0.0000 (   687 PWs)   bands (ev):

  -115.4423-115.4126 -69.3775 -69.3303 -69.3303 -69.2743 -69.2743 -69.2285
    -9.6446  -8.9604   2.9208   2.9208   3.1004   3.1092   3.1092   3.1837
     3.9751   3.9751   4.0794   4.0794   4.4605   7.9494   7.9494   8.7241
     8.7964   8.7964   9.5758  14.1302  17.0908  21.9482  21.9483

     occupation numbers 
     1.0000   1.0000   1.0000   1.0000   1.0000   1.0000   1.0000   1.0000
     1.0000   1.0000   1.0000   1.0000   1.0000   1.0000   1.0000   1.0000
     1.0000   1.0000   1.0000   1.0000   1.0000   1.0000   1.0000   1.0000
     1.0000   1.0000   0.0000   0.0000   0.0000   0.0000   0.0000

          k = 0.0000 0.0000 0.0775 (   669 PWs)   bands (ev):

  -115.4082-115.4027 -69.2532 -69.2514 -69.2514 -69.2418 -69.2380 -69.2380
    -9.6191  -8.9863   2.9901   2.9901   2.9935   3.1355   3.1355   3.1650
     4.0194   4.0194   4.2103   4.2103   4.6565   8.0716   8.0716   8.3568
     8.7672   8.7672  10.0334  13.9940  17.3845  21.9488  21.9488

     occupation numbers 
     1.0000   1.0000   1.0000   1.0000   1.0000   1.0000   1.0000   1.0000
     1.0000   1.0000   1.0000   1.0000   1.0000   1.0000   1.0000   1.0000
     1.0000   1.0000   1.0000   1.0000   1.0000   1.0000   1.0000   1.0000
     1.0000   1.0000   0.0000   0.0000   0.0000   0.0000   0.0000

          k = 0.0000 0.0000 0.1550 (   664 PWs)   bands (ev):

  -115.4108-115.3943 -69.2632 -69.2507 -69.2507 -69.2415 -69.2415 -69.1823
    -9.5480  -9.0607   2.9117   2.9956   2.9956   3.0688   3.1022   3.1022
     4.0473   4.0473   4.2116   4.2116   5.2123   7.7133   8.1682   8.1682
     8.6873   8.6873  10.7701  13.6170  17.7747  21.3118  21.9675

     occupation numbers 
     1.0000   1.0000   1.0000   1.0000   1.0000   1.0000   1.0000   1.0000
     1.0000   1.0000   1.0000   1.0000   1.0000   1.0000   1.0000   1.0000
     1.0000   1.0000   1.0000   1.0000   1.0000   1.0000   1.0000   1.0000
     1.0000   1.0000   0.0000   0.0000   0.0000   0.0000   0.0000

          k = 0.0000 0.0000 0.2325 (   670 PWs)   bands (ev):

  -115.4110-115.4099 -69.2805 -69.2709 -69.2514 -69.2514 -69.2441 -69.2441
    -9.4399  -9.1758   2.8225   2.8285   3.0137   3.0137   3.0607   3.0607
     4.0891   4.0891   4.1682   4.1682   5.7724   7.0596   8.2923   8.2923
     8.5687   8.5687  11.5507  13.0173  18.3003  20.1244  22.0504

     occupation numbers 
     1.0000   1.0000   1.0000   1.0000   1.0000   1.0000   1.0000   1.0000
     1.0000   1.0000   1.0000   1.0000   1.0000   1.0000   1.0000   1.0000
     1.0000   1.0000   1.0000   1.0000   1.0000   1.0000   1.0000   1.0000
     1.0000   1.0000   0.0000   0.0000   0.0000   0.0000   0.0000

          k = 0.0000 0.0000-0.3100 (   664 PWs)   bands (ev):

  -115.4017-115.4017 -69.2820 -69.2820 -69.2151 -69.2151 -69.2151 -69.2151
    -9.3073  -9.3073   2.8035   2.8035   3.0536   3.0536   3.0536   3.0536
     4.1409   4.1409   4.1409   4.1409   6.3981   6.3981   8.4867   8.4867
     8.4867   8.4867  12.3137  12.3137  19.1072  19.1072  22.2407

     occupation numbers 
     1.0000   1.0000   1.0000   1.0000   1.0000   1.0000   1.0000   1.0000
     1.0000   1.0000   1.0000   1.0000   1.0000   1.0000   1.0000   1.0000
     1.0000   1.0000   1.0000   1.0000   1.0000   1.0000   1.0000   1.0000
     1.0000   1.0000   0.0000   0.0000   0.0000   0.0000   0.0000

          k = 0.0000 0.0962 0.0000 (   669 PWs)   bands (ev):

  -115.4161-115.3928 -69.3099 -69.2898 -69.2469 -69.2243 -69.2012 -69.1920
    -9.6065  -8.9421   2.9674   2.9847   3.1270   3.1717   3.2045   3.2857
     3.9875   4.0197   4.1731   4.2148   4.4669   7.7601   7.9087   8.3208
     8.7151   8.7590  10.1887  14.4602  17.1780  21.1756  22.0237

     occupation numbers 
     1.0000   1.0000   1.0000   1.0000   1.0000   1.0000   1.0000   1.0000
     1.0000   1.0000   1.0000   1.0000   1.0000   1.0000   1.0000   1.0000
     1.0000   1.0000   1.0000   1.0000   1.0000   1.0000   1.0000   1.0000
     1.0000   1.0000   0.0000   0.0000   0.0000   0.0000   0.0000

          k = 0.0000 0.0962 0.0775 (   674 PWs)   bands (ev):

  -115.4152-115.4070 -69.3194 -69.2835 -69.2585 -69.2559 -69.2303 -69.2179
    -9.5832  -8.9682   2.9264   2.9826   3.0612   3.1130   3.1537   3.2316
     3.9919   4.0006   4.1506   4.1863   4.7069   7.7748   7.9332   8.0720
     8.6641   8.7242  10.4541  14.2870  17.3289  21.1950  22.0223

     occupation numbers 
     1.0000   1.0000   1.0000   1.0000   1.0000   1.0000   1.0000   1.0000
     1.0000   1.0000   1.0000   1.0000   1.0000   1.0000   1.0000   1.0000
     1.0000   1.0000   1.0000   1.0000   1.0000   1.0000   1.0000   1.0000
     1.0000   1.0000   0.0000   0.0000   0.0000   0.0000   0.0000

          k = 0.0000 0.0962 0.1550 (   664 PWs)   bands (ev):

  -115.4106-115.3898 -69.2698 -69.2556 -69.2486 -69.2316 -69.2099 -69.1812
    -9.5136  -9.0401   2.8747   2.9978   3.0264   3.0335   3.1458   3.1956
     4.0232   4.0548   4.2165   4.2181   5.2327   7.5836   7.9298   8.0946
     8.5459   8.6543  11.0673  13.8794  17.7686  21.1241  21.4777

     occupation numbers 
     1.0000   1.0000   1.0000   1.0000   1.0000   1.0000   1.0000   1.0000
     1.0000   1.0000   1.0000   1.0000   1.0000   1.0000   1.0000   1.0000
     1.0000   1.0000   1.0000   1.0000   1.0000   1.0000   1.0000   1.0000
     1.0000   1.0000   0.0000   0.0000   0.0000   0.0000   0.0000

          k = 0.0000 0.0962 0.2325 (   667 PWs)   bands (ev):

  -115.4094-115.4015 -69.2691 -69.2504 -69.2460 -69.2428 -69.2402 -69.2237
    -9.4077  -9.1521   2.8036   2.8626   3.0369   3.0379   3.0967   3.1103
     4.0923   4.0932   4.1705   4.1858   5.8032   7.0277   8.0607   8.2193
     8.4057   8.5053  11.7981  13.2722  18.3039  20.0838  21.5111

     occupation numbers 
     1.0000   1.0000   1.0000   1.0000   1.0000   1.0000   1.0000   1.0000
     1.0000   1.0000   1.0000   1.0000   1.0000   1.0000   1.0000   1.0000
     1.0000   1.0000   1.0000   1.0000   1.0000   1.0000   1.0000   1.0000
     1.0000   1.0000   0.0000   0.0000   0.0000   0.0000   0.0000

          k = 0.0000 0.0962-0.3100 (   668 PWs)   bands (ev):

  -115.4076-115.4076 -69.2756 -69.2756 -69.2418 -69.2418 -69.2344 -69.2344
    -9.2809  -9.2809   2.7687   2.7687   3.0623   3.0623   3.0635   3.0635
     4.1353   4.1353   4.1463   4.1463   6.4167   6.4167   8.2340   8.2340
     8.3768   8.3768  12.5461  12.5461  19.0838  19.0838  21.7434

     occupation numbers 
     1.0000   1.0000   1.0000   1.0000   1.0000   1.0000   1.0000   1.0000
     1.0000   1.0000   1.0000   1.0000   1.0000   1.0000   1.0000   1.0000
     1.0000   1.0000   1.0000   1.0000   1.0000   1.0000   1.0000   1.0000
     1.0000   1.0000   0.0000   0.0000   0.0000   0.0000   0.0000

          k = 0.0000 0.1925 0.0000 (   667 PWs)   bands (ev):

  -115.4039-115.3968 -69.2897 -69.2399 -69.2272 -69.2187 -69.2143 -69.2084
    -9.5033  -8.8980   2.8639   3.0796   3.1123   3.1884   3.3189   3.4636
     3.9554   4.0213   4.2036   4.3413   4.4380   7.0816   7.6363   7.6847
     8.5908   8.6550  11.1252  15.2242  17.1772  19.8479  21.6048

     occupation numbers 
     1.0000   1.0000   1.0000   1.0000   1.0000   1.0000   1.0000   1.0000
     1.0000   1.0000   1.0000   1.0000   1.0000   1.0000   1.0000   1.0000
     1.0000   1.0000   1.0000   1.0000   1.0000   1.0000   1.0000   1.0000
     1.0000   1.0000   0.0000   0.0000   0.0000   0.0000   0.0000

          k = 0.0000 0.1925 0.0775 (   670 PWs)   bands (ev):

  -115.4074-115.4008 -69.2822 -69.2670 -69.2479 -69.2365 -69.2152 -69.2097
    -9.4806  -8.9216   2.8481   3.0581   3.0665   3.1510   3.2822   3.3911
     3.9849   4.0077   4.1736   4.2615   4.7445   7.1040   7.5606   7.6951
     8.5362   8.5769  11.2964  15.0070  17.3343  19.8795  21.5189

     occupation numbers 
     1.0000   1.0000   1.0000   1.0000   1.0000   1.0000   1.0000   1.0000
     1.0000   1.0000   1.0000   1.0000   1.0000   1.0000   1.0000   1.0000
     1.0000   1.0000   1.0000   1.0000   1.0000   1.0000   1.0000   1.0000
     1.0000   1.0000   0.0000   0.0000   0.0000   0.0000   0.0000

          k = 0.0000 0.1925 0.1550 (   670 PWs)   bands (ev):

  -115.4070-115.4029 -69.2753 -69.2606 -69.2527 -69.2349 -69.2255 -69.2215
    -9.4168  -8.9886   2.7969   2.9626   3.0757   3.1101   3.2466   3.2910
     4.0038   4.0347   4.1960   4.2019   5.2639   7.1113   7.4043   7.8313
     8.3431   8.4725  11.7407  14.4926  17.7090  19.9314  21.1605

     occupation numbers 
     1.0000   1.0000   1.0000   1.0000   1.0000   1.0000   1.0000   1.0000
     1.0000   1.0000   1.0000   1.0000   1.0000   1.0000   1.0000   1.0000
     1.0000   1.0000   1.0000   1.0000   1.0000   1.0000   1.0000   1.0000
     1.0000   1.0000   0.0000   0.0000   0.0000   0.0000   0.0000

          k = 0.0000 0.1925 0.2325 (   669 PWs)   bands (ev):

  -115.4096-115.3987 -69.2876 -69.2627 -69.2347 -69.2314 -69.2249 -69.2157
    -9.3205  -9.0876   2.7482   2.8267   3.0817   3.1090   3.1843   3.2143
     4.0608   4.0654   4.1853   4.2109   5.8396   6.8110   7.5494   7.9949
     8.0970   8.3258  12.3605  13.8345  18.2451  19.6505  20.8013

     occupation numbers 
     1.0000   1.0000   1.0000   1.0000   1.0000   1.0000   1.0000   1.0000
     1.0000   1.0000   1.0000   1.0000   1.0000   1.0000   1.0000   1.0000
     1.0000   1.0000   1.0000   1.0000   1.0000   1.0000   1.0000   1.0000
     1.0000   1.0000   0.0000   0.0000   0.0000   0.0000   0.0000

          k = 0.0000 0.1925-0.3100 (   674 PWs)   bands (ev):

  -115.4104-115.4104 -69.2870 -69.2870 -69.2557 -69.2557 -69.2356 -69.2356
    -9.2050  -9.2050   2.7137   2.7137   3.1073   3.1073   3.1342   3.1342
     4.1145   4.1145   4.1426   4.1426   6.3557   6.3557   7.8035   7.8035
     8.1672   8.1672  13.0709  13.0709  18.9245  18.9245  20.9541

     occupation numbers 
     1.0000   1.0000   1.0000   1.0000   1.0000   1.0000   1.0000   1.0000
     1.0000   1.0000   1.0000   1.0000   1.0000   1.0000   1.0000   1.0000
     1.0000   1.0000   1.0000   1.0000   1.0000   1.0000   1.0000   1.0000
     1.0000   1.0000   0.0000   0.0000   0.0000   0.0000   0.0000

          k = 0.0000 0.2887 0.0000 (   678 PWs)   bands (ev):

  -115.4126-115.4114 -69.3024 -69.2834 -69.2698 -69.2554 -69.2450 -69.2329
    -9.3536  -8.8429   2.7815   3.0670   3.0743   3.2402   3.3854   3.6462
     3.9141   3.9908   4.1744   4.4478   4.5443   6.2345   7.0044   7.2874
     8.3579   8.3840  12.1292  16.0460  17.1022  18.6448  20.6376

     occupation numbers 
     1.0000   1.0000   1.0000   1.0000   1.0000   1.0000   1.0000   1.0000
     1.0000   1.0000   1.0000   1.0000   1.0000   1.0000   1.0000   1.0000
     1.0000   1.0000   1.0000   1.0000   1.0000   1.0000   1.0000   1.0000
     1.0000   1.0000   0.0000   0.0000   0.0000   0.0000   0.0000

          k = 0.0000 0.2887 0.0775 (   672 PWs)   bands (ev):

  -115.4076-115.4026 -69.2727 -69.2661 -69.2648 -69.2429 -69.2232 -69.2124
    -9.3338  -8.8620   2.7605   3.0614   3.1107   3.2537   3.3851   3.5525
     3.9485   4.0306   4.1926   4.3259   4.8617   6.2964   6.9594   7.3463
     8.3377   8.3818  12.2251  15.7693  17.2957  18.7015  20.6061

     occupation numbers 
     1.0000   1.0000   1.0000   1.0000   1.0000   1.0000   1.0000   1.0000
     1.0000   1.0000   1.0000   1.0000   1.0000   1.0000   1.0000   1.0000
     1.0000   1.0000   1.0000   1.0000   1.0000   1.0000   1.0000   1.0000
     1.0000   1.0000   0.0000   0.0000   0.0000   0.0000   0.0000

          k = 0.0000 0.2887 0.1550 (   674 PWs)   bands (ev):

  -115.4113-115.4029 -69.2802 -69.2769 -69.2543 -69.2517 -69.2261 -69.2215
    -9.2800  -8.9169   2.7443   2.9358   3.1208   3.2106   3.3133   3.4438
     4.0019   4.0301   4.1906   4.2606   5.3221   6.4018   6.8767   7.4796
     8.1603   8.2497  12.5457  15.1434  17.6578  18.7816  20.4769

     occupation numbers 
     1.0000   1.0000   1.0000   1.0000   1.0000   1.0000   1.0000   1.0000
     1.0000   1.0000   1.0000   1.0000   1.0000   1.0000   1.0000   1.0000
     1.0000   1.0000   1.0000   1.0000   1.0000   1.0000   1.0000   1.0000
     1.0000   1.0000   0.0000   0.0000   0.0000   0.0000   0.0000

          k = 0.0000 0.2887 0.2325 (   674 PWs)   bands (ev):

  -115.4161-115.3985 -69.2960 -69.2716 -69.2678 -69.2326 -69.2250 -69.2205
    -9.1976  -8.9994   2.6942   2.7950   3.1632   3.2039   3.2884   3.3214
     4.0425   4.0843   4.1836   4.1986   5.7659   6.3330   7.0685   7.6822
     7.8498   8.0960  13.0310  14.4166  18.0608  18.7586  20.3625

     occupation numbers 
     1.0000   1.0000   1.0000   1.0000   1.0000   1.0000   1.0000   1.0000
     1.0000   1.0000   1.0000   1.0000   1.0000   1.0000   1.0000   1.0000
     1.0000   1.0000   1.0000   1.0000   1.0000   1.0000   1.0000   1.0000
     1.0000   1.0000   0.0000   0.0000   0.0000   0.0000   0.0000

          k = 0.0000 0.2887-0.3100 (   676 PWs)   bands (ev):

  -115.4098-115.4098 -69.2791 -69.2791 -69.2495 -69.2495 -69.2478 -69.2478
    -9.0986  -9.0986   2.7140   2.7140   3.2266   3.2266   3.2383   3.2383
     4.1109   4.1109   4.1203   4.1203   6.0835   6.0835   7.4568   7.4568
     7.8845   7.8845  13.6899  13.6899  18.4746  18.4746  20.5715

     occupation numbers 
     1.0000   1.0000   1.0000   1.0000   1.0000   1.0000   1.0000   1.0000
     1.0000   1.0000   1.0000   1.0000   1.0000   1.0000   1.0000   1.0000
     1.0000   1.0000   1.0000   1.0000   1.0000   1.0000   1.0000   1.0000
     1.0000   1.0000   0.0000   0.0000   0.0000   0.0000   0.0000

          k = 0.0000 0.3849 0.0000 (   674 PWs)   bands (ev):

  -115.4096-115.4030 -69.2895 -69.2650 -69.2622 -69.2440 -69.2305 -69.2066
    -9.1892  -8.7972   2.7707   3.0645   3.1579   3.4078   3.5360   3.7271
     3.9588   4.0517   4.2010   4.4460   4.8224   5.5276   6.4604   6.9467
     8.0324   8.1648  13.1850  16.5330  16.8939  17.8285  20.0554

     occupation numbers 
     1.0000   1.0000   1.0000   1.0000   1.0000   1.0000   1.0000   1.0000
     1.0000   1.0000   1.0000   1.0000   1.0000   1.0000   1.0000   1.0000
     1.0000   1.0000   1.0000   1.0000   1.0000   1.0000   1.0000   1.0000
     1.0000   1.0000   0.0000   0.0000   0.0000   0.0000   0.0000

          k = 0.0000 0.3849 0.0775 (   676 PWs)   bands (ev):

  -115.4223-115.3937 -69.3098 -69.3000 -69.2888 -69.2236 -69.2189 -69.1889
    -9.1732  -8.8126   2.7696   3.0110   3.1531   3.4220   3.5464   3.6231
     3.9651   4.0549   4.2026   4.3563   4.9656   5.5985   6.4302   7.0034
     8.0516   8.1244  13.2178  16.1160  17.1798  17.8382  20.0418

     occupation numbers 
     1.0000   1.0000   1.0000   1.0000   1.0000   1.0000   1.0000   1.0000
     1.0000   1.0000   1.0000   1.0000   1.0000   1.0000   1.0000   1.0000
     1.0000   1.0000   1.0000   1.0000   1.0000   1.0000   1.0000   1.0000
     1.0000   1.0000   0.0000   0.0000   0.0000   0.0000   0.0000

          k = 0.0000 0.3849 0.1550 (   670 PWs)   bands (ev):

  -115.4052-115.3958 -69.2842 -69.2518 -69.2394 -69.2196 -69.2102 -69.2092
    -9.1293  -8.8515   2.7225   2.9315   3.2098   3.3695   3.5148   3.5310
     4.0259   4.0882   4.2340   4.3014   5.2193   5.7970   6.5009   7.1672
     7.9893   8.0394  13.3515  15.5153  17.5242  17.9585  20.0073

     occupation numbers 
     1.0000   1.0000   1.0000   1.0000   1.0000   1.0000   1.0000   1.0000
     1.0000   1.0000   1.0000   1.0000   1.0000   1.0000   1.0000   1.0000
     1.0000   1.0000   1.0000   1.0000   1.0000   1.0000   1.0000   1.0000
     1.0000   1.0000   0.0000   0.0000   0.0000   0.0000   0.0000

          k = 0.0000 0.3849 0.2325 (   676 PWs)   bands (ev):

  -115.4100-115.4050 -69.2901 -69.2672 -69.2569 -69.2409 -69.2368 -69.2352
    -9.0648  -8.9134   2.6750   2.7768   3.2545   3.3461   3.4184   3.4221
     4.0855   4.0943   4.1684   4.2204   5.4119   5.7549   6.8861   7.3687
     7.7715   7.8388  13.6655  14.8270  17.7833  18.0091  20.0686

     occupation numbers 
     1.0000   1.0000   1.0000   1.0000   1.0000   1.0000   1.0000   1.0000
     1.0000   1.0000   1.0000   1.0000   1.0000   1.0000   1.0000   1.0000
     1.0000   1.0000   1.0000   1.0000   1.0000   1.0000   1.0000   1.0000
     1.0000   1.0000   0.0000   0.0000   0.0000   0.0000   0.0000

          k = 0.0000 0.3849-0.3100 (   680 PWs)   bands (ev):

  -115.4119-115.4119 -69.2870 -69.2870 -69.2749 -69.2749 -69.2371 -69.2371
    -8.9891  -8.9891   2.6788   2.6788   3.3316   3.3316   3.3541   3.3541
     4.1218   4.1218   4.1334   4.1334   5.5875   5.5875   7.3624   7.3624
     7.6214   7.6214  14.1728  14.1728  17.9455  17.9455  20.4398

     occupation numbers 
     1.0000   1.0000   1.0000   1.0000   1.0000   1.0000   1.0000   1.0000
     1.0000   1.0000   1.0000   1.0000   1.0000   1.0000   1.0000   1.0000
     1.0000   1.0000   1.0000   1.0000   1.0000   1.0000   1.0000   1.0000
     1.0000   1.0000   0.0000   0.0000   0.0000   0.0000   0.0000

          k = 0.0000 0.4811 0.0000 (   680 PWs)   bands (ev):

  -115.4210-115.4044 -69.3514 -69.2810 -69.2567 -69.2519 -69.2463 -69.2208
    -9.0508  -8.7803   2.7891   3.0496   3.2440   3.5187   3.6324   3.7236
     3.9632   4.1150   4.2255   4.4026   4.7675   5.2697   6.0089   6.6687
     7.6705   8.0194  14.1379  16.2641  16.5525  17.5821  19.7232

     occupation numbers 
     1.0000   1.0000   1.0000   1.0000   1.0000   1.0000   1.0000   1.0000
     1.0000   1.0000   1.0000   1.0000   1.0000   1.0000   1.0000   1.0000
     1.0000   1.0000   1.0000   1.0000   1.0000   1.0000   1.0000   1.0000
     1.0000   1.0000   0.0000   0.0000   0.0000   0.0000   0.0000

          k = 0.0000 0.4811 0.0775 (   674 PWs)   bands (ev):

  -115.4133-115.3965 -69.3120 -69.2557 -69.2485 -69.2413 -69.2162 -69.2100
    -9.0392  -8.7875   2.7816   3.0290   3.2277   3.5503   3.6294   3.7121
     4.0268   4.1205   4.2466   4.3985   4.7947   5.3530   6.1201   6.7307
     7.7307   7.9784  14.0913  15.9719  16.8248  17.6126  19.7056

     occupation numbers 
     1.0000   1.0000   1.0000   1.0000   1.0000   1.0000   1.0000   1.0000
     1.0000   1.0000   1.0000   1.0000   1.0000   1.0000   1.0000   1.0000
     1.0000   1.0000   1.0000   1.0000   1.0000   1.0000   1.0000   1.0000
     1.0000   1.0000   0.0000   0.0000   0.0000   0.0000   0.0000

          k = 0.0000 0.4811 0.1550 (   678 PWs)   bands (ev):

  -115.4171-115.4006 -69.3108 -69.2829 -69.2654 -69.2494 -69.2245 -69.2160
    -9.0074  -8.8149   2.7221   2.8924   3.2374   3.5025   3.5512   3.6356
     4.0858   4.1152   4.2143   4.3246   4.8620   5.3333   6.4572   6.9071
     7.7645   7.8349  14.0460  15.5090  17.1495  17.6680  19.6599

     occupation numbers 
     1.0000   1.0000   1.0000   1.0000   1.0000   1.0000   1.0000   1.0000
     1.0000   1.0000   1.0000   1.0000   1.0000   1.0000   1.0000   1.0000
     1.0000   1.0000   1.0000   1.0000   1.0000   1.0000   1.0000   1.0000
     1.0000   1.0000   0.0000   0.0000   0.0000   0.0000   0.0000

          k = 0.0000 0.4811 0.2325 (   673 PWs)   bands (ev):

  -115.4059-115.3958 -69.2995 -69.2787 -69.2418 -69.2246 -69.2053 -69.1841
    -8.9600  -8.8551   2.6901   2.7668   3.3548   3.4722   3.5121   3.5741
     4.1596   4.1694   4.2123   4.2818   4.9792   5.2358   6.9337   7.1617
     7.6565   7.7011  14.1531  14.9925  17.4489  17.6978  19.8231

     occupation numbers 
     1.0000   1.0000   1.0000   1.0000   1.0000   1.0000   1.0000   1.0000
     1.0000   1.0000   1.0000   1.0000   1.0000   1.0000   1.0000   1.0000
     1.0000   1.0000   1.0000   1.0000   1.0000   1.0000   1.0000   1.0000
     1.0000   1.0000   0.0000   0.0000   0.0000   0.0000   0.0000

          k = 0.0000 0.4811-0.3100 (   670 PWs)   bands (ev):

  -115.3971-115.3971 -69.2651 -69.2651 -69.2122 -69.2122 -69.2098 -69.2098
    -8.9055  -8.9055   2.6969   2.6969   3.4444   3.4444   3.5298   3.5298
     4.1751   4.1751   4.2624   4.2624   5.0935   5.0935   7.4147   7.4147
     7.4252   7.4252  14.4990  14.4990  17.6151  17.6151  20.3291

     occupation numbers 
     1.0000   1.0000   1.0000   1.0000   1.0000   1.0000   1.0000   1.0000
     1.0000   1.0000   1.0000   1.0000   1.0000   1.0000   1.0000   1.0000
     1.0000   1.0000   1.0000   1.0000   1.0000   1.0000   1.0000   1.0000
     1.0000   1.0000   0.0000   0.0000   0.0000   0.0000   0.0000

          k = 0.0000-0.5774 0.0000 (   668 PWs)   bands (ev):

  -115.3994-115.3966 -69.2459 -69.2440 -69.2304 -69.2281 -69.2236 -69.2008
    -8.9889  -8.7799   2.8325   3.0984   3.2732   3.6013   3.6324   3.8003
     4.0261   4.2014   4.2667   4.3370   4.8740   5.2479   5.9658   6.5795
     7.5298   7.9712  14.7071  15.8041  16.5094  17.6078  19.6184

     occupation numbers 
     1.0000   1.0000   1.0000   1.0000   1.0000   1.0000   1.0000   1.0000
     1.0000   1.0000   1.0000   1.0000   1.0000   1.0000   1.0000   1.0000
     1.0000   1.0000   1.0000   1.0000   1.0000   1.0000   1.0000   1.0000
     1.0000   1.0000   0.0000   0.0000   0.0000   0.0000   0.0000

          k = 0.0000-0.5774 0.0775 (   680 PWs)   bands (ev):

  -115.4155-115.4084 -69.3190 -69.3111 -69.2546 -69.2545 -69.2312 -69.2279
    -8.9825  -8.7874   2.7851   3.0065   3.2158   3.5899   3.6344   3.7508
     4.0579   4.1457   4.2251   4.2641   4.8071   5.1553   6.1152   6.6217
     7.5494   7.9144  14.5626  15.6899  16.6463  17.5970  19.5596

     occupation numbers 
     1.0000   1.0000   1.0000   1.0000   1.0000   1.0000   1.0000   1.0000
     1.0000   1.0000   1.0000   1.0000   1.0000   1.0000   1.0000   1.0000
     1.0000   1.0000   1.0000   1.0000   1.0000   1.0000   1.0000   1.0000
     1.0000   1.0000   0.0000   0.0000   0.0000   0.0000   0.0000

          k = 0.0000-0.5774 0.1550 (   680 PWs)   bands (ev):

  -115.4173-115.4045 -69.3146 -69.3025 -69.2758 -69.2530 -69.2192 -69.2180
    -8.9569  -8.8070   2.7221   2.8667   3.2607   3.5557   3.6048   3.6872
     4.1403   4.1451   4.2243   4.2545   4.7656   5.0506   6.5455   6.8128
     7.6351   7.7763  14.3699  15.4135  16.9478  17.6481  19.5228

     occupation numbers 
     1.0000   1.0000   1.0000   1.0000   1.0000   1.0000   1.0000   1.0000
     1.0000   1.0000   1.0000   1.0000   1.0000   1.0000   1.0000   1.0000
     1.0000   1.0000   1.0000   1.0000   1.0000   1.0000   1.0000   1.0000
     1.0000   1.0000   0.0000   0.0000   0.0000   0.0000   0.0000

          k = 0.0000-0.5774 0.2325 (   682 PWs)   bands (ev):

  -115.4138-115.4090 -69.3266 -69.3167 -69.2741 -69.2547 -69.2219 -69.2071
    -8.9187  -8.8385   2.6866   2.7585   3.3174   3.5296   3.5641   3.5764
     4.1479   4.1690   4.2372   4.2630   4.7756   4.9105   6.9946   7.0434
     7.5519   7.6740  14.3557  15.0000  17.2378  17.6018  19.7139

     occupation numbers 
     1.0000   1.0000   1.0000   1.0000   1.0000   1.0000   1.0000   1.0000
     1.0000   1.0000   1.0000   1.0000   1.0000   1.0000   1.0000   1.0000
     1.0000   1.0000   1.0000   1.0000   1.0000   1.0000   1.0000   1.0000
     1.0000   1.0000   0.0000   0.0000   0.0000   0.0000   0.0000

          k = 0.0000-0.5774-0.3100 (   668 PWs)   bands (ev):

  -115.3945-115.3945 -69.2690 -69.2690 -69.2040 -69.2040 -69.1933 -69.1933
    -8.8753  -8.8753   2.7092   2.7092   3.4967   3.4967   3.5986   3.5986
     4.1924   4.1924   4.2836   4.2836   4.8811   4.8811   7.3377   7.3377
     7.4473   7.4473  14.5984  14.5984  17.5187  17.5187  20.2638

     occupation numbers 
     1.0000   1.0000   1.0000   1.0000   1.0000   1.0000   1.0000   1.0000
     1.0000   1.0000   1.0000   1.0000   1.0000   1.0000   1.0000   1.0000
     1.0000   1.0000   1.0000   1.0000   1.0000   1.0000   1.0000   1.0000
     1.0000   1.0000   0.0000   0.0000   0.0000   0.0000   0.0000

          k = 0.0833 0.1443 0.0000 (   673 PWs)   bands (ev):

  -115.4093-115.4081 -69.2927 -69.2631 -69.2542 -69.2457 -69.2410 -69.2290
    -9.5369  -8.9125   2.8967   3.0202   3.0992   3.1473   3.2528   3.4107
     3.9689   3.9987   4.1680   4.2918   4.4309   7.3441   7.5445   7.9275
     8.6229   8.6389  10.8636  14.9996  17.1846  20.2506  21.6816

     occupation numbers 
     1.0000   1.0000   1.0000   1.0000   1.0000   1.0000   1.0000   1.0000
     1.0000   1.0000   1.0000   1.0000   1.0000   1.0000   1.0000   1.0000
     1.0000   1.0000   1.0000   1.0000   1.0000   1.0000   1.0000   1.0000
     1.0000   1.0000   0.0000   0.0000   0.0000   0.0000   0.0000

          k = 0.0833 0.1443 0.0775 (   671 PWs)   bands (ev):

  -115.4076-115.4052 -69.2938 -69.2614 -69.2556 -69.2374 -69.2317 -69.2145
    -9.5138  -8.9359   2.8864   2.9980   3.1045   3.1192   3.2346   3.3497
     3.9880   3.9917   4.1767   4.2260   4.7427   7.3926   7.5241   7.8859
     8.5737   8.6034  11.0587  14.7932  17.3362  20.2826  21.6814

     occupation numbers 
     1.0000   1.0000   1.0000   1.0000   1.0000   1.0000   1.0000   1.0000
     1.0000   1.0000   1.0000   1.0000   1.0000   1.0000   1.0000   1.0000
     1.0000   1.0000   1.0000   1.0000   1.0000   1.0000   1.0000   1.0000
     1.0000   1.0000   0.0000   0.0000   0.0000   0.0000   0.0000

          k = 0.0833 0.1443 0.1550 (   665 PWs)   bands (ev):

  -115.4049-115.3940 -69.2634 -69.2478 -69.2270 -69.2182 -69.2158 -69.2128
    -9.4482  -9.0040   2.8382   2.9685   3.0777   3.1031   3.2214   3.2683
     4.0268   4.0384   4.2036   4.2263   5.2549   7.3097   7.5214   7.9293
     8.4164   8.5123  11.5462  14.3343  17.7324  20.3153  21.4005

     occupation numbers 
     1.0000   1.0000   1.0000   1.0000   1.0000   1.0000   1.0000   1.0000
     1.0000   1.0000   1.0000   1.0000   1.0000   1.0000   1.0000   1.0000
     1.0000   1.0000   1.0000   1.0000   1.0000   1.0000   1.0000   1.0000
     1.0000   1.0000   0.0000   0.0000   0.0000   0.0000   0.0000

          k = 0.0833 0.1443 0.2325 (   664 PWs)   bands (ev):

  -115.4031-115.3949 -69.2643 -69.2436 -69.2305 -69.2249 -69.2247 -69.1894
    -9.3476  -9.1076   2.7771   2.8599   3.0797   3.1005   3.1699   3.2030
     4.0837   4.0998   4.1681   4.2137   5.8353   6.9057   7.7161   8.0393
     8.2083   8.3968  12.1984  13.6894  18.2747  19.8561  20.9733

     occupation numbers 
     1.0000   1.0000   1.0000   1.0000   1.0000   1.0000   1.0000   1.0000
     1.0000   1.0000   1.0000   1.0000   1.0000   1.0000   1.0000   1.0000
     1.0000   1.0000   1.0000   1.0000   1.0000   1.0000   1.0000   1.0000
     1.0000   1.0000   0.0000   0.0000   0.0000   0.0000   0.0000

          k = 0.0833 0.1443-0.3100 (   670 PWs)   bands (ev):

  -115.4065-115.4065 -69.2862 -69.2862 -69.2313 -69.2313 -69.2279 -69.2279
    -9.2288  -9.2288   2.7415   2.7415   3.0851   3.0851   3.1330   3.1330
     4.1225   4.1225   4.1434   4.1434   6.3854   6.3854   7.9339   7.9339
     8.2378   8.2378  12.9235  12.9235  19.0047  19.0047  21.1505

     occupation numbers 
     1.0000   1.0000   1.0000   1.0000   1.0000   1.0000   1.0000   1.0000
     1.0000   1.0000   1.0000   1.0000   1.0000   1.0000   1.0000   1.0000
     1.0000   1.0000   1.0000   1.0000   1.0000   1.0000   1.0000   1.0000
     1.0000   1.0000   0.0000   0.0000   0.0000   0.0000   0.0000

          k = 0.0833 0.2406 0.0000 (   674 PWs)   bands (ev):

  -115.4116-115.4046 -69.2789 -69.2768 -69.2673 -69.2461 -69.2272 -69.2242
    -9.4097  -8.8626   2.8313   3.0267   3.1245   3.2200   3.3493   3.5805
     3.9362   3.9877   4.1794   4.4387   4.4598   6.6466   7.0235   7.5200
     8.4278   8.4603  11.7925  15.8084  17.1679  19.1351  20.8416

     occupation numbers 
     1.0000   1.0000   1.0000   1.0000   1.0000   1.0000   1.0000   1.0000
     1.0000   1.0000   1.0000   1.0000   1.0000   1.0000   1.0000   1.0000
     1.0000   1.0000   1.0000   1.0000   1.0000   1.0000   1.0000   1.0000
     1.0000   1.0000   0.0000   0.0000   0.0000   0.0000   0.0000

          k = 0.0833 0.2406 0.0775 (   669 PWs)   bands (ev):

  -115.4025-115.4013 -69.2748 -69.2613 -69.2407 -69.2247 -69.2178 -69.2094
    -9.3886  -8.8826   2.8181   3.0192   3.1365   3.2162   3.3501   3.5003
     3.9619   4.0076   4.2077   4.3173   4.8303   6.6970   7.0247   7.5308
     8.3980   8.4241  11.9140  15.5543  17.3476  19.1753  20.8782

     occupation numbers 
     1.0000   1.0000   1.0000   1.0000   1.0000   1.0000   1.0000   1.0000
     1.0000   1.0000   1.0000   1.0000   1.0000   1.0000   1.0000   1.0000
     1.0000   1.0000   1.0000   1.0000   1.0000   1.0000   1.0000   1.0000
     1.0000   1.0000   0.0000   0.0000   0.0000   0.0000   0.0000

          k = 0.0833 0.2406 0.1550 (   673 PWs)   bands (ev):

  -115.4088-115.4040 -69.2914 -69.2764 -69.2663 -69.2362 -69.2292 -69.2044
    -9.3307  -8.9429   2.7640   2.9313   3.1173   3.1712   3.3042   3.3702
     3.9798   4.0261   4.1883   4.2466   5.3207   6.7466   7.0060   7.5768
     8.2246   8.3011  12.2676  14.9493  17.7038  19.2372  20.8117

     occupation numbers 
     1.0000   1.0000   1.0000   1.0000   1.0000   1.0000   1.0000   1.0000
     1.0000   1.0000   1.0000   1.0000   1.0000   1.0000   1.0000   1.0000
     1.0000   1.0000   1.0000   1.0000   1.0000   1.0000   1.0000   1.0000
     1.0000   1.0000   0.0000   0.0000   0.0000   0.0000   0.0000

          k = 0.0833 0.2406 0.2325 (   674 PWs)   bands (ev):

  -115.4105-115.4050 -69.2983 -69.2654 -69.2591 -69.2520 -69.2317 -69.2150
    -9.2429  -9.0324   2.7159   2.8078   3.1232   3.1518   3.2465   3.2789
     4.0399   4.0749   4.1642   4.2157   5.8164   6.5560   7.2249   7.7182
     7.9466   8.1319  12.8238  14.2438  18.1662  19.1412  20.5579

     occupation numbers 
     1.0000   1.0000   1.0000   1.0000   1.0000   1.0000   1.0000   1.0000
     1.0000   1.0000   1.0000   1.0000   1.0000   1.0000   1.0000   1.0000
     1.0000   1.0000   1.0000   1.0000   1.0000   1.0000   1.0000   1.0000
     1.0000   1.0000   0.0000   0.0000   0.0000   0.0000   0.0000

          k = 0.0833 0.2406-0.3100 (   670 PWs)   bands (ev):

  -115.4034-115.4034 -69.2850 -69.2850 -69.2306 -69.2306 -69.2090 -69.2090
    -9.1378  -9.1378   2.7391   2.7391   3.1607   3.1607   3.2456   3.2456
     4.1231   4.1231   4.1444   4.1444   6.2355   6.2355   7.5861   7.5861
     7.9447   7.9447  13.5141  13.5141  18.7093  18.7093  20.6092

     occupation numbers 
     1.0000   1.0000   1.0000   1.0000   1.0000   1.0000   1.0000   1.0000
     1.0000   1.0000   1.0000   1.0000   1.0000   1.0000   1.0000   1.0000
     1.0000   1.0000   1.0000   1.0000   1.0000   1.0000   1.0000   1.0000
     1.0000   1.0000   0.0000   0.0000   0.0000   0.0000   0.0000

          k = 0.0833 0.3368 0.0000 (   668 PWs)   bands (ev):

  -115.4030-115.3946 -69.2743 -69.2427 -69.2369 -69.2282 -69.2067 -69.1968
    -9.2514  -8.8107   2.8143   3.0707   3.1586   3.3361   3.5413   3.7332
     3.9395   4.0408   4.2280   4.4706   4.7355   5.8900   6.6057   7.0422
     8.1775   8.2077  12.8297  16.4745  17.1477  18.1833  20.2196

     occupation numbers 
     1.0000   1.0000   1.0000   1.0000   1.0000   1.0000   1.0000   1.0000
     1.0000   1.0000   1.0000   1.0000   1.0000   1.0000   1.0000   1.0000
     1.0000   1.0000   1.0000   1.0000   1.0000   1.0000   1.0000   1.0000
     1.0000   1.0000   0.0000   0.0000   0.0000   0.0000   0.0000

          k = 0.0833 0.3368 0.0775 (   669 PWs)   bands (ev):

  -115.4032-115.3969 -69.2768 -69.2492 -69.2443 -69.2243 -69.2064 -69.2023
    -9.2339  -8.8280   2.8038   3.0347   3.1701   3.3298   3.5088   3.6337
     3.9476   4.0418   4.2272   4.3555   4.9707   5.9697   6.5713   7.0696
     8.1531   8.2016  12.8907  16.1258  17.3493  18.2150  20.2619

     occupation numbers 
     1.0000   1.0000   1.0000   1.0000   1.0000   1.0000   1.0000   1.0000
     1.0000   1.0000   1.0000   1.0000   1.0000   1.0000   1.0000   1.0000
     1.0000   1.0000   1.0000   1.0000   1.0000   1.0000   1.0000   1.0000
     1.0000   1.0000   0.0000   0.0000   0.0000   0.0000   0.0000

          k = 0.0833 0.3368 0.1550 (   672 PWs)   bands (ev):

  -115.4073-115.4009 -69.2654 -69.2562 -69.2504 -69.2406 -69.2356 -69.2177
    -9.1863  -8.8746   2.7614   2.9441   3.1650   3.2901   3.4496   3.4859
     3.9956   4.0633   4.1914   4.2956   5.3225   6.0898   6.5906   7.1776
     8.0049   8.0967  13.1051  15.5002  17.6482  18.3014  20.2147

     occupation numbers 
     1.0000   1.0000   1.0000   1.0000   1.0000   1.0000   1.0000   1.0000
     1.0000   1.0000   1.0000   1.0000   1.0000   1.0000   1.0000   1.0000
     1.0000   1.0000   1.0000   1.0000   1.0000   1.0000   1.0000   1.0000
     1.0000   1.0000   0.0000   0.0000   0.0000   0.0000   0.0000

          k = 0.0833 0.3368 0.2325 (   677 PWs)   bands (ev):

  -115.4164-115.4028 -69.3075 -69.2722 -69.2626 -69.2541 -69.2454 -69.2145
    -9.1146  -8.9457   2.7141   2.7959   3.1953   3.2704   3.3592   3.3979
     4.0533   4.0813   4.1672   4.1954   5.6029   6.0257   6.9122   7.3658
     7.7862   7.8679  13.5067  14.7743  17.9400  18.3404  20.1349

     occupation numbers 
     1.0000   1.0000   1.0000   1.0000   1.0000   1.0000   1.0000   1.0000
     1.0000   1.0000   1.0000   1.0000   1.0000   1.0000   1.0000   1.0000
     1.0000   1.0000   1.0000   1.0000   1.0000   1.0000   1.0000   1.0000
     1.0000   1.0000   0.0000   0.0000   0.0000   0.0000   0.0000

          k = 0.0833 0.3368-0.3100 (   678 PWs)   bands (ev):

  -115.4103-115.4103 -69.2929 -69.2929 -69.2615 -69.2615 -69.2293 -69.2293
    -9.0300  -9.0300   2.7095   2.7095   3.2506   3.2506   3.3307   3.3307
     4.1069   4.1069   4.1482   4.1482   5.8427   5.8427   7.3664   7.3664
     7.6421   7.6421  14.0808  14.0808  18.2065  18.2065  20.3232

     occupation numbers 
     1.0000   1.0000   1.0000   1.0000   1.0000   1.0000   1.0000   1.0000
     1.0000   1.0000   1.0000   1.0000   1.0000   1.0000   1.0000   1.0000
     1.0000   1.0000   1.0000   1.0000   1.0000   1.0000   1.0000   1.0000
     1.0000   1.0000   0.0000   0.0000   0.0000   0.0000   0.0000

          k = 0.0833 0.4330 0.0000 (   676 PWs)   bands (ev):

  -115.4141-115.4014 -69.3008 -69.2693 -69.2551 -69.2514 -69.2286 -69.2169
    -9.0989  -8.7821   2.8223   3.0980   3.1698   3.4598   3.6621   3.7066
     3.9662   4.0736   4.2181   4.4714   4.8414   5.3794   6.1826   6.6159
     7.8104   7.9787  13.8583  16.5908  16.8276  17.6531  19.8788

     occupation numbers 
     1.0000   1.0000   1.0000   1.0000   1.0000   1.0000   1.0000   1.0000
     1.0000   1.0000   1.0000   1.0000   1.0000   1.0000   1.0000   1.0000
     1.0000   1.0000   1.0000   1.0000   1.0000   1.0000   1.0000   1.0000
     1.0000   1.0000   0.0000   0.0000   0.0000   0.0000   0.0000

          k = 0.0833 0.4330 0.0775 (   673 PWs)   bands (ev):

  -115.4071-115.4005 -69.2960 -69.2508 -69.2457 -69.2366 -69.2246 -69.2104
    -9.0855  -8.7925   2.8001   3.0613   3.2025   3.4711   3.6221   3.6621
     3.9861   4.0902   4.2234   4.4208   4.9298   5.4959   6.2069   6.6872
     7.8408   7.9521  13.8571  16.2309  17.1226  17.6841  19.8435

     occupation numbers 
     1.0000   1.0000   1.0000   1.0000   1.0000   1.0000   1.0000   1.0000
     1.0000   1.0000   1.0000   1.0000   1.0000   1.0000   1.0000   1.0000
     1.0000   1.0000   1.0000   1.0000   1.0000   1.0000   1.0000   1.0000
     1.0000   1.0000   0.0000   0.0000   0.0000   0.0000   0.0000

          k = 0.0833 0.4330 0.1550 (   671 PWs)   bands (ev):

  -115.4052-115.3959 -69.2919 -69.2580 -69.2330 -69.2276 -69.2094 -69.1986
    -9.0481  -8.8239   2.7612   2.9504   3.2325   3.4466   3.5462   3.5768
     4.0531   4.1269   4.2230   4.3479   5.0608   5.5909   6.4404   6.8550
     7.7907   7.9036  13.9103  15.6867  17.4359  17.7575  19.7400

     occupation numbers 
     1.0000   1.0000   1.0000   1.0000   1.0000   1.0000   1.0000   1.0000
     1.0000   1.0000   1.0000   1.0000   1.0000   1.0000   1.0000   1.0000
     1.0000   1.0000   1.0000   1.0000   1.0000   1.0000   1.0000   1.0000
     1.0000   1.0000   0.0000   0.0000   0.0000   0.0000   0.0000

          k = 0.0833 0.4330 0.2325 (   675 PWs)   bands (ev):

  -115.4081-115.4007 -69.2862 -69.2594 -69.2472 -69.2376 -69.2354 -69.2146
    -8.9950  -8.8730   2.7181   2.8060   3.2813   3.4106   3.4605   3.4994
     4.1062   4.1374   4.1993   4.2696   5.1725   5.5020   6.8704   7.1124
     7.5723   7.7736  14.1213  15.0973  17.6472  17.8108  19.7755

     occupation numbers 
     1.0000   1.0000   1.0000   1.0000   1.0000   1.0000   1.0000   1.0000
     1.0000   1.0000   1.0000   1.0000   1.0000   1.0000   1.0000   1.0000
     1.0000   1.0000   1.0000   1.0000   1.0000   1.0000   1.0000   1.0000
     1.0000   1.0000   0.0000   0.0000   0.0000   0.0000   0.0000

          k = 0.0833 0.4330-0.3100 (   680 PWs)   bands (ev):

  -115.4095-115.4095 -69.2904 -69.2904 -69.2626 -69.2626 -69.2306 -69.2305
    -8.9338  -8.9338   2.7145   2.7145   3.3603   3.3603   3.4499   3.4499
     4.1246   4.1246   4.1893   4.1893   5.3302   5.3302   7.2360   7.2360
     7.4745   7.4745  14.5370  14.5370  17.7675  17.7675  20.0975

     occupation numbers 
     1.0000   1.0000   1.0000   1.0000   1.0000   1.0000   1.0000   1.0000
     1.0000   1.0000   1.0000   1.0000   1.0000   1.0000   1.0000   1.0000
     1.0000   1.0000   1.0000   1.0000   1.0000   1.0000   1.0000   1.0000
     1.0000   1.0000   0.0000   0.0000   0.0000   0.0000   0.0000

          k = 0.0833 0.5292 0.0000 (   683 PWs)   bands (ev):

  -115.4235-115.4062 -69.3587 -69.2887 -69.2704 -69.2572 -69.2499 -69.2198
    -8.9939  -8.7804   2.8438   3.1185   3.1976   3.5511   3.6193   3.7392
     3.9830   4.1175   4.2218   4.3134   4.8215   5.2780   5.9356   6.4490
     7.4829   7.8466  14.7138  16.1226  16.5218  17.5838  19.6427

     occupation numbers 
     1.0000   1.0000   1.0000   1.0000   1.0000   1.0000   1.0000   1.0000
     1.0000   1.0000   1.0000   1.0000   1.0000   1.0000   1.0000   1.0000
     1.0000   1.0000   1.0000   1.0000   1.0000   1.0000   1.0000   1.0000
     1.0000   1.0000   0.0000   0.0000   0.0000   0.0000   0.0000

          k = 0.0833 0.5292 0.0775 (   679 PWs)   bands (ev):

  -115.4150-115.4046 -69.3379 -69.2709 -69.2689 -69.2395 -69.2328 -69.2140
    -8.9847  -8.7865   2.8115   3.0598   3.2180   3.5565   3.6088   3.7394
     4.0306   4.1183   4.2435   4.3275   4.7984   5.2681   6.0965   6.5379
     7.5489   7.8102  14.6250  15.9704  16.7106  17.6236  19.5667

     occupation numbers 
     1.0000   1.0000   1.0000   1.0000   1.0000   1.0000   1.0000   1.0000
     1.0000   1.0000   1.0000   1.0000   1.0000   1.0000   1.0000   1.0000
     1.0000   1.0000   1.0000   1.0000   1.0000   1.0000   1.0000   1.0000
     1.0000   1.0000   0.0000   0.0000   0.0000   0.0000   0.0000

          k = 0.0833 0.5292 0.1550 (   678 PWs)   bands (ev):

  -115.4130-115.4013 -69.3221 -69.2800 -69.2474 -69.2330 -69.2264 -69.2183
    -8.9574  -8.8063   2.7597   2.9378   3.2607   3.5521   3.5641   3.6611
     4.0930   4.1427   4.2442   4.3314   4.7725   5.1845   6.4312   6.7657
     7.6015   7.7344  14.4966  15.6391  17.0235  17.6852  19.4265

     occupation numbers 
     1.0000   1.0000   1.0000   1.0000   1.0000   1.0000   1.0000   1.0000
     1.0000   1.0000   1.0000   1.0000   1.0000   1.0000   1.0000   1.0000
     1.0000   1.0000   1.0000   1.0000   1.0000   1.0000   1.0000   1.0000
     1.0000   1.0000   0.0000   0.0000   0.0000   0.0000   0.0000

          k = 0.0833 0.5292 0.2325 (   678 PWs)   bands (ev):

  -115.4122-115.4008 -69.3056 -69.2862 -69.2595 -69.2332 -69.2301 -69.2073
    -8.9192  -8.8381   2.7298   2.7995   3.3333   3.4869   3.5494   3.5768
     4.1379   4.1468   4.2509   4.3190   4.8480   5.0386   6.7838   7.1133
     7.4122   7.7064  14.5253  15.2004  17.3153  17.6690  19.5117

     occupation numbers 
     1.0000   1.0000   1.0000   1.0000   1.0000   1.0000   1.0000   1.0000
     1.0000   1.0000   1.0000   1.0000   1.0000   1.0000   1.0000   1.0000
     1.0000   1.0000   1.0000   1.0000   1.0000   1.0000   1.0000   1.0000
     1.0000   1.0000   0.0000   0.0000   0.0000   0.0000   0.0000

          k = 0.0833 0.5292-0.3100 (   676 PWs)   bands (ev):

  -115.4042-115.4042 -69.2746 -69.2746 -69.2492 -69.2492 -69.2177 -69.2177
    -8.8771  -8.8771   2.7336   2.7336   3.4126   3.4126   3.5597   3.5597
     4.1433   4.1433   4.2945   4.2945   4.9557   4.9557   7.1030   7.1030
     7.4937   7.4937  14.7842  14.7842  17.5476  17.5476  19.9334

     occupation numbers 
     1.0000   1.0000   1.0000   1.0000   1.0000   1.0000   1.0000   1.0000
     1.0000   1.0000   1.0000   1.0000   1.0000   1.0000   1.0000   1.0000
     1.0000   1.0000   1.0000   1.0000   1.0000   1.0000   1.0000   1.0000
     1.0000   1.0000   0.0000   0.0000   0.0000   0.0000   0.0000

          k = 0.1667 0.2887 0.0000 (   667 PWs)   bands (ev):

  -115.3982-115.3975 -69.2418 -69.2361 -69.2343 -69.2188 -69.2177 -69.2147
    -9.2736  -8.8177   2.8744   3.0125   3.2239   3.2976   3.5097   3.7127
     3.9292   4.0075   4.2431   4.4402   4.7327   6.2447   6.4003   7.1229
     8.1468   8.2612  12.7230  16.4614  17.2828  18.4400  20.1149

     occupation numbers 
     1.0000   1.0000   1.0000   1.0000   1.0000   1.0000   1.0000   1.0000
     1.0000   1.0000   1.0000   1.0000   1.0000   1.0000   1.0000   1.0000
     1.0000   1.0000   1.0000   1.0000   1.0000   1.0000   1.0000   1.0000
     1.0000   1.0000   0.0000   0.0000   0.0000   0.0000   0.0000

          k = 0.1667 0.2887 0.0775 (   668 PWs)   bands (ev):

  -115.4013-115.3973 -69.2764 -69.2543 -69.2234 -69.2145 -69.2129 -69.2077
    -9.2560  -8.8346   2.8583   3.0085   3.2029   3.2783   3.5111   3.6213
     3.9457   4.0335   4.2161   4.3443   4.9505   6.3269   6.3995   7.1075
     8.1075   8.2252  12.8212  16.1433  17.4450  18.4700  20.2693

     occupation numbers 
     1.0000   1.0000   1.0000   1.0000   1.0000   1.0000   1.0000   1.0000
     1.0000   1.0000   1.0000   1.0000   1.0000   1.0000   1.0000   1.0000
     1.0000   1.0000   1.0000   1.0000   1.0000   1.0000   1.0000   1.0000
     1.0000   1.0000   0.0000   0.0000   0.0000   0.0000   0.0000

          k = 0.1667 0.2887 0.1550 (   672 PWs)   bands (ev):

  -115.4055-115.4027 -69.2601 -69.2578 -69.2516 -69.2436 -69.2289 -69.2230
    -9.2068  -8.8842   2.7939   2.9258   3.1953   3.2354   3.4420   3.4525
     3.9855   4.0662   4.1875   4.2932   5.3467   6.3270   6.5638   7.1391
     7.9664   8.1233  13.0523  15.5127  17.7157  18.5347  20.4839

     occupation numbers 
     1.0000   1.0000   1.0000   1.0000   1.0000   1.0000   1.0000   1.0000
     1.0000   1.0000   1.0000   1.0000   1.0000   1.0000   1.0000   1.0000
     1.0000   1.0000   1.0000   1.0000   1.0000   1.0000   1.0000   1.0000
     1.0000   1.0000   0.0000   0.0000   0.0000   0.0000   0.0000

          k = 0.1667 0.2887 0.2325 (   674 PWs)   bands (ev):

  -115.4069-115.4053 -69.2877 -69.2770 -69.2484 -69.2405 -69.2311 -69.2149
    -9.1331  -8.9580   2.7565   2.8200   3.1973   3.2324   3.3628   3.3774
     4.0424   4.0874   4.1711   4.2189   5.6882   6.1658   6.9706   7.3006
     7.7639   7.8673  13.4931  14.7825  18.0412  18.5588  20.3585

     occupation numbers 
     1.0000   1.0000   1.0000   1.0000   1.0000   1.0000   1.0000   1.0000
     1.0000   1.0000   1.0000   1.0000   1.0000   1.0000   1.0000   1.0000
     1.0000   1.0000   1.0000   1.0000   1.0000   1.0000   1.0000   1.0000
     1.0000   1.0000   0.0000   0.0000   0.0000   0.0000   0.0000

          k = 0.1667 0.2887-0.3100 (   674 PWs)   bands (ev):

  -115.4057-115.4057 -69.2769 -69.2769 -69.2600 -69.2600 -69.2111 -69.2111
    -9.0453  -9.0453   2.7493   2.7493   3.2304   3.2304   3.3592   3.3592
     4.0989   4.0989   4.1509   4.1509   5.9536   5.9536   7.3908   7.3908
     7.5963   7.5963  14.0860  14.0860  18.3806  18.3806  20.1700

     occupation numbers 
     1.0000   1.0000   1.0000   1.0000   1.0000   1.0000   1.0000   1.0000
     1.0000   1.0000   1.0000   1.0000   1.0000   1.0000   1.0000   1.0000
     1.0000   1.0000   1.0000   1.0000   1.0000   1.0000   1.0000   1.0000
     1.0000   1.0000   0.0000   0.0000   0.0000   0.0000   0.0000

          k = 0.1667 0.3849 0.0000 (   666 PWs)   bands (ev):

  -115.3962-115.3944 -69.2468 -69.2348 -69.2263 -69.2157 -69.2063 -69.1945
    -9.1249  -8.7836   2.9264   3.0508   3.2609   3.4120   3.6726   3.7664
     3.9379   4.0548   4.2615   4.5030   4.9003   5.7364   6.1166   6.5421
     7.8544   7.9132  13.7956  16.6492  17.5299  17.8102  19.9143

     occupation numbers 
     1.0000   1.0000   1.0000   1.0000   1.0000   1.0000   1.0000   1.0000
     1.0000   1.0000   1.0000   1.0000   1.0000   1.0000   1.0000   1.0000
     1.0000   1.0000   1.0000   1.0000   1.0000   1.0000   1.0000   1.0000
     1.0000   1.0000   0.0000   0.0000   0.0000   0.0000   0.0000

          k = 0.1667 0.3849 0.0775 (   670 PWs)   bands (ev):

  -115.4047-115.3951 -69.2727 -69.2417 -69.2375 -69.2318 -69.2244 -69.1936
    -9.1108  -8.7966   2.8982   3.0233   3.2489   3.3781   3.6314   3.6679
     3.9483   4.0743   4.2314   4.4433   5.0110   5.7903   6.1652   6.5363
     7.7961   7.9631  13.8189  16.4145  17.5873  17.8401  19.9630

     occupation numbers 
     1.0000   1.0000   1.0000   1.0000   1.0000   1.0000   1.0000   1.0000
     1.0000   1.0000   1.0000   1.0000   1.0000   1.0000   1.0000   1.0000
     1.0000   1.0000   1.0000   1.0000   1.0000   1.0000   1.0000   1.0000
     1.0000   1.0000   0.0000   0.0000   0.0000   0.0000   0.0000

          k = 0.1667 0.3849 0.1550 (   675 PWs)   bands (ev):

  -115.4100-115.4008 -69.2775 -69.2644 -69.2531 -69.2412 -69.2351 -69.2175
    -9.0730  -8.8324   2.8429   2.9552   3.2399   3.3263   3.5262   3.5545
     3.9994   4.0939   4.2102   4.3468   5.1928   5.8164   6.4334   6.6357
     7.6298   7.9442  13.9431  15.8873  17.7151  17.9152  19.8392

     occupation numbers 
     1.0000   1.0000   1.0000   1.0000   1.0000   1.0000   1.0000   1.0000
     1.0000   1.0000   1.0000   1.0000   1.0000   1.0000   1.0000   1.0000
     1.0000   1.0000   1.0000   1.0000   1.0000   1.0000   1.0000   1.0000
     1.0000   1.0000   0.0000   0.0000   0.0000   0.0000   0.0000

          k = 0.1667 0.3849 0.2325 (   678 PWs)   bands (ev):

  -115.4115-115.4050 -69.2843 -69.2746 -69.2601 -69.2476 -69.2425 -69.2297
    -9.0159  -8.8859   2.7834   2.8480   3.2614   3.3093   3.4291   3.4547
     4.0604   4.1268   4.1896   4.2583   5.3746   5.7154   6.7873   6.9272
     7.4160   7.8082  14.2199  15.2746  17.8805  18.0062  19.6376

     occupation numbers 
     1.0000   1.0000   1.0000   1.0000   1.0000   1.0000   1.0000   1.0000
     1.0000   1.0000   1.0000   1.0000   1.0000   1.0000   1.0000   1.0000
     1.0000   1.0000   1.0000   1.0000   1.0000   1.0000   1.0000   1.0000
     1.0000   1.0000   0.0000   0.0000   0.0000   0.0000   0.0000

          k = 0.1667 0.3849-0.3100 (   682 PWs)   bands (ev):

  -115.4124-115.4124 -69.2963 -69.2963 -69.2693 -69.2693 -69.2382 -69.2382
    -8.9510  -8.9510   2.7602   2.7602   3.2828   3.2828   3.4103   3.4103
     4.1131   4.1131   4.1903   4.1903   5.5506   5.5506   7.0480   7.0480
     7.4727   7.4727  14.6741  14.6741  17.9971  17.9971  19.6655

     occupation numbers 
     1.0000   1.0000   1.0000   1.0000   1.0000   1.0000   1.0000   1.0000
     1.0000   1.0000   1.0000   1.0000   1.0000   1.0000   1.0000   1.0000
     1.0000   1.0000   1.0000   1.0000   1.0000   1.0000   1.0000   1.0000
     1.0000   1.0000   0.0000   0.0000   0.0000   0.0000   0.0000

          k = 0.1667 0.4811 0.0000 (   675 PWs)   bands (ev):

  -115.4091-115.3992 -69.3181 -69.2622 -69.2553 -69.2276 -69.2188 -69.1955
    -8.9977  -8.7765   2.9259   3.1664   3.2687   3.4815   3.6979   3.7735
     3.9870   4.0644   4.2516   4.4470   4.8256   5.4192   5.9480   6.2148
[...]
    -8.9998  -8.7743   3.0034   3.1259   3.3475   3.4583   3.7472   3.8522
     3.9281   4.0413   4.2727   4.5559   4.8517   5.4898   5.9474   6.0923
     7.5091   7.5772  14.8479  16.6097  17.5002  17.6591  20.0566

     occupation numbers 
     1.0000   1.0000   1.0000   1.0000   1.0000   1.0000   1.0000   1.0000
     1.0000   1.0000   1.0000   1.0000   1.0000   1.0000   1.0000   1.0000
     1.0000   1.0000   1.0000   1.0000   1.0000   1.0000   1.0000   1.0000
     1.0000   1.0000   0.0000   0.0000   0.0000   0.0000   0.0000

          k = 0.2500 0.4330 0.0775 (   674 PWs)   bands (ev):

  -115.4067-115.3978 -69.2661 -69.2597 -69.2391 -69.2359 -69.2338 -69.2074
    -8.9900  -8.7835   2.9951   3.0722   3.3514   3.4206   3.7044   3.7233
     3.9526   4.0710   4.2458   4.5243   4.8875   5.4959   5.9343   6.2215
     7.4455   7.6338  14.8563  16.4979  17.5122  17.6965  19.6640

     occupation numbers 
     1.0000   1.0000   1.0000   1.0000   1.0000   1.0000   1.0000   1.0000
     1.0000   1.0000   1.0000   1.0000   1.0000   1.0000   1.0000   1.0000
     1.0000   1.0000   1.0000   1.0000   1.0000   1.0000   1.0000   1.0000
     1.0000   1.0000   0.0000   0.0000   0.0000   0.0000   0.0000

          k = 0.2500 0.4330 0.1550 (   683 PWs)   bands (ev):

  -115.4151-115.4088 -69.3074 -69.2960 -69.2741 -69.2489 -69.2410 -69.2290
    -8.9643  -8.8059   2.9642   2.9679   3.2890   3.3439   3.5617   3.5953
     4.0123   4.0792   4.2143   4.4503   5.0085   5.4694   6.0159   6.5646
     7.2381   7.7261  14.8859  16.2052  17.5743  17.7855  19.1274

     occupation numbers 
     1.0000   1.0000   1.0000   1.0000   1.0000   1.0000   1.0000   1.0000
     1.0000   1.0000   1.0000   1.0000   1.0000   1.0000   1.0000   1.0000
     1.0000   1.0000   1.0000   1.0000   1.0000   1.0000   1.0000   1.0000
     1.0000   1.0000   0.0000   0.0000   0.0000   0.0000   0.0000

          k = 0.2500 0.4330 0.2325 (   682 PWs)   bands (ev):

  -115.4117-115.4083 -69.3020 -69.2817 -69.2627 -69.2608 -69.2336 -69.2297
    -8.9252  -8.8397   2.8811   2.9145   3.2725   3.3181   3.5104   3.5158
     4.0734   4.1298   4.2513   4.3609   5.1165   5.3759   6.2803   6.8227
     7.1886   7.7305  15.0516  15.8066  17.6902  17.8725  18.8044

     occupation numbers 
     1.0000   1.0000   1.0000   1.0000   1.0000   1.0000   1.0000   1.0000
     1.0000   1.0000   1.0000   1.0000   1.0000   1.0000   1.0000   1.0000
     1.0000   1.0000   1.0000   1.0000   1.0000   1.0000   1.0000   1.0000
     1.0000   1.0000   0.0000   0.0000   0.0000   0.0000   0.0000

          k = 0.2500 0.4330-0.3100 (   676 PWs)   bands (ev):

  -115.4025-115.4025 -69.2603 -69.2603 -69.2586 -69.2586 -69.2079 -69.2079
    -8.8802  -8.8802   2.8819   2.8819   3.2984   3.2984   3.5058   3.5058
     4.1291   4.1291   4.3100   4.3100   5.2673   5.2673   6.5866   6.5866
     7.5499   7.5499  15.3899  15.3899  17.8303  17.8303  18.8486

     occupation numbers 
     1.0000   1.0000   1.0000   1.0000   1.0000   1.0000   1.0000   1.0000
     1.0000   1.0000   1.0000   1.0000   1.0000   1.0000   1.0000   1.0000
     1.0000   1.0000   1.0000   1.0000   1.0000   1.0000   1.0000   1.0000
     1.0000   1.0000   0.0000   0.0000   0.0000   0.0000   0.0000

          k = 0.2500 0.5292 0.0000 (   681 PWs)   bands (ev):

  -115.4164-115.4058 -69.3270 -69.2752 -69.2664 -69.2404 -69.2400 -69.2347
    -8.9073  -8.7928   2.9575   3.2376   3.4295   3.5198   3.7484   3.8401
     3.9845   4.0045   4.2240   4.2937   4.9592   5.1789   5.4340   6.4544
     7.1566   7.3173  15.8235  16.5569  16.9393  17.4823  19.7615

     occupation numbers 
     1.0000   1.0000   1.0000   1.0000   1.0000   1.0000   1.0000   1.0000
     1.0000   1.0000   1.0000   1.0000   1.0000   1.0000   1.0000   1.0000
     1.0000   1.0000   1.0000   1.0000   1.0000   1.0000   1.0000   1.0000
     1.0000   1.0000   0.0000   0.0000   0.0000   0.0000   0.0000

          k = 0.2500 0.5292 0.0775 (   684 PWs)   bands (ev):

  -115.4155-115.4114 -69.3269 -69.2939 -69.2659 -69.2558 -69.2428 -69.2380
    -8.9021  -8.7963   2.9632   3.1943   3.3514   3.5045   3.7040   3.7864
     3.9585   4.0530   4.2209   4.3336   4.9177   5.2304   5.4338   6.5834
     7.1426   7.3383  15.7898  16.5421  16.9960  17.5111  19.3579

     occupation numbers 
     1.0000   1.0000   1.0000   1.0000   1.0000   1.0000   1.0000   1.0000
     1.0000   1.0000   1.0000   1.0000   1.0000   1.0000   1.0000   1.0000
     1.0000   1.0000   1.0000   1.0000   1.0000   1.0000   1.0000   1.0000
     1.0000   1.0000   0.0000   0.0000   0.0000   0.0000   0.0000

          k = 0.2500 0.5292 0.1550 (   682 PWs)   bands (ev):

  -115.4104-115.4069 -69.2989 -69.2943 -69.2624 -69.2582 -69.2317 -69.2089
    -8.8847  -8.8051   2.9732   3.1133   3.2339   3.4563   3.6547   3.7014
     4.0110   4.0712   4.2833   4.4362   4.8972   5.2056   5.6168   6.8406
     7.0269   7.5046  15.7813  16.4609  17.1248  17.6538  18.6355

     occupation numbers 
     1.0000   1.0000   1.0000   1.0000   1.0000   1.0000   1.0000   1.0000
     1.0000   1.0000   1.0000   1.0000   1.0000   1.0000   1.0000   1.0000
     1.0000   1.0000   1.0000   1.0000   1.0000   1.0000   1.0000   1.0000
     1.0000   1.0000   0.0000   0.0000   0.0000   0.0000   0.0000

          k = 0.2500 0.5292 0.2325 (   681 PWs)   bands (ev):

  -115.4080-115.4055 -69.2995 -69.2901 -69.2639 -69.2446 -69.2206 -69.2065
    -8.8629  -8.8197   2.9620   3.0138   3.2257   3.3778   3.6287   3.6484
     4.0352   4.0590   4.3550   4.4455   4.9352   5.1137   5.9250   6.6237
     7.3068   7.6435  15.8171  16.2610  17.3049  17.8082  18.1026

     occupation numbers 
     1.0000   1.0000   1.0000   1.0000   1.0000   1.0000   1.0000   1.0000
     1.0000   1.0000   1.0000   1.0000   1.0000   1.0000   1.0000   1.0000
     1.0000   1.0000   1.0000   1.0000   1.0000   1.0000   1.0000   1.0000
     1.0000   1.0000   0.0000   0.0000   0.0000   0.0000   0.0000

          k = 0.2500 0.5292-0.3100 (   680 PWs)   bands (ev):

  -115.4052-115.4052 -69.2919 -69.2919 -69.2465 -69.2465 -69.2125 -69.2125
    -8.8394  -8.8394   2.9539   2.9539   3.2816   3.2816   3.6212   3.6212
     4.0591   4.0591   4.4239   4.4239   5.0213   5.0213   6.2876   6.2876
     7.5679   7.5679  16.0008  16.0008  17.5628  17.5628  18.2945

     occupation numbers 
     1.0000   1.0000   1.0000   1.0000   1.0000   1.0000   1.0000   1.0000
     1.0000   1.0000   1.0000   1.0000   1.0000   1.0000   1.0000   1.0000
     1.0000   1.0000   1.0000   1.0000   1.0000   1.0000   1.0000   1.0000
     1.0000   1.0000   0.0000   0.0000   0.0000   0.0000   0.0000

          k = 0.3333 0.5774 0.0000 (   699 PWs)   bands (ev):

  -115.4321-115.4321 -69.3937 -69.3434 -69.3434 -69.2899 -69.2754 -69.2754
    -8.8389  -8.8389   2.9468   3.3033   3.3033   3.6023   3.8317   3.8736
     3.8736   4.0159   4.0938   4.0938   4.8709   5.1199   5.1199   6.8302
     6.8302   7.0531  16.5447  16.6928  16.6928  17.0291  19.7803

     occupation numbers 
     1.0000   1.0000   1.0000   1.0000   1.0000   1.0000   1.0000   1.0000
     1.0000   1.0000   1.0000   1.0000   1.0000   1.0000   1.0000   1.0000
     1.0000   1.0000   1.0000   1.0000   1.0000   1.0000   1.0000   1.0000
     1.0000   1.0000   0.0000   0.0000   0.0000   0.0000   0.0000

          k = 0.3333 0.5774 0.0775 (   693 PWs)   bands (ev):

  -115.4233-115.4233 -69.3658 -69.3276 -69.3276 -69.2821 -69.2428 -69.2428
    -8.8364  -8.8364   2.9700   3.2801   3.2801   3.5960   3.8183   3.8183
     3.8490   4.0235   4.1912   4.1912   4.9770   5.1051   5.1051   6.9556
     6.9556   6.9857  16.5890  16.7232  16.7232  17.0492  19.4411

     occupation numbers 
     1.0000   1.0000   1.0000   1.0000   1.0000   1.0000   1.0000   1.0000
     1.0000   1.0000   1.0000   1.0000   1.0000   1.0000   1.0000   1.0000
     1.0000   1.0000   1.0000   1.0000   1.0000   1.0000   1.0000   1.0000
     1.0000   1.0000   0.0000   0.0000   0.0000   0.0000   0.0000

          k = 0.3333 0.5774 0.1550 (   687 PWs)   bands (ev):

  -115.4139-115.4139 -69.2977 -69.2977 -69.2728 -69.2598 -69.2598 -69.2465
    -8.8319  -8.8319   3.0277   3.1468   3.1468   3.4877   3.7362   3.7362
     3.9590   4.0378   4.3732   4.3732   5.0460   5.0460   5.2820   6.7758
     7.2031   7.2031  16.7043  16.7926  16.7926  17.0768  18.7524

     occupation numbers 
     1.0000   1.0000   1.0000   1.0000   1.0000   1.0000   1.0000   1.0000
     1.0000   1.0000   1.0000   1.0000   1.0000   1.0000   1.0000   1.0000
     1.0000   1.0000   1.0000   1.0000   1.0000   1.0000   1.0000   1.0000
     1.0000   1.0000   0.0000   0.0000   0.0000   0.0000   0.0000

          k = 0.3333 0.5774 0.2325 (   672 PWs)   bands (ev):

  -115.3947-115.3947 -69.2375 -69.2348 -69.2348 -69.2206 -69.2038 -69.2038
    -8.8254  -8.8254   3.0940   3.0940   3.1507   3.3557   3.7342   3.7342
     3.9815   4.0506   4.5010   4.5010   5.0536   5.0536   5.7140   6.4759
     7.4912   7.4912  16.8416  16.8687  16.8687  17.0276  18.1905

     occupation numbers 
     1.0000   1.0000   1.0000   1.0000   1.0000   1.0000   1.0000   1.0000
     1.0000   1.0000   1.0000   1.0000   1.0000   1.0000   1.0000   1.0000
     1.0000   1.0000   1.0000   1.0000   1.0000   1.0000   1.0000   1.0000
     1.0000   1.0000   0.0000   0.0000   0.0000   0.0000   0.0000

          k = 0.3333 0.5774-0.3100 (   666 PWs)   bands (ev):

  -115.3876-115.3876 -69.2289 -69.2289 -69.1963 -69.1963 -69.1857 -69.1857
    -8.8226  -8.8226   3.0623   3.0623   3.2904   3.2904   3.7254   3.7254
     4.0458   4.0458   4.5468   4.5468   5.0225   5.0225   6.0981   6.0981
     7.6181   7.6181  16.9140  16.9140  16.9697  16.9697  17.9598

     occupation numbers 
     1.0000   1.0000   1.0000   1.0000   1.0000   1.0000   1.0000   1.0000
     1.0000   1.0000   1.0000   1.0000   1.0000   1.0000   1.0000   1.0000
     1.0000   1.0000   1.0000   1.0000   1.0000   1.0000   1.0000   1.0000
     1.0000   1.0000   0.0000   0.0000   0.0000   0.0000   0.0000

     the Fermi energy is     9.2273 ev

!    total energy              =   -1005.34434350 Ry
     estimated scf accuracy    <          8.5E-10 Ry
     smearing contrib. (-TS)   =       0.00000000 Ry
     internal energy E=F+TS    =   -1005.34434350 Ry

     The total energy is F=E-TS. E is the sum of the following terms:
     one-electron contribution =    -800.60903371 Ry
     hartree contribution      =     421.66439334 Ry
     xc contribution           =     -99.17090191 Ry
     ewald contribution        =    -508.17051052 Ry
     one-center paw contrib.   =     -19.05829070 Ry
      -> PAW hartree energy AE =      66.88824410 Ry
      -> PAW hartree energy PS =     -66.73736633 Ry
      -> PAW xc energy AE      =     -35.41183763 Ry
      -> PAW xc energy PS      =      16.20266916 Ry
      -> total E_H with PAW    =     421.81527111 Ry
      -> total E_XC with PAW   =    -118.38007038 Ry

     convergence has been achieved in   9 iterations

     Forces acting on atoms (cartesian axes, Ry/au):

     atom    1 type  2   force =    -0.00000000    0.00000000   -0.00058086
     atom    2 type  2   force =     0.00000000    0.00000000   -0.00058086
     atom    3 type  1   force =    -0.00000000   -0.00000000    0.00058086
     atom    4 type  1   force =    -0.00000000   -0.00000000    0.00058086
     The non-local contrib.  to forces
     atom    1 type  2   force =     0.00000000   -0.00000000   -0.01192394
     atom    2 type  2   force =     0.00000000   -0.00000000   -0.01192394
     atom    3 type  1   force =    -0.00000000   -0.00000000    0.00496305
     atom    4 type  1   force =     0.00000000    0.00000000    0.00496305
     The ionic contribution  to forces
     atom    1 type  2   force =    -0.00000062    0.00000036    0.08378819
     atom    2 type  2   force =     0.00000062   -0.00000036    0.08378819
     atom    3 type  1   force =    -0.00000053    0.00000031   -0.08378819
     atom    4 type  1   force =     0.00000053   -0.00000031   -0.08378819
     The local contribution  to forces
     atom    1 type  2   force =    -0.00000960    0.00000554   -0.07241503
     atom    2 type  2   force =     0.00002880   -0.00001663   -0.07241563
     atom    3 type  1   force =    -0.00000052    0.00000030    0.07950053
     atom    4 type  1   force =     0.00000157   -0.00000090    0.07950153
     The core correction contribution to forces
     atom    1 type  2   force =     0.00000000    0.00000000    0.00000000
     atom    2 type  2   force =     0.00000000    0.00000000    0.00000000
     atom    3 type  1   force =    -0.00000000    0.00000000   -0.00006861
     atom    4 type  1   force =     0.00000000   -0.00000000   -0.00006861
     The Hubbard contrib.    to forces
     atom    1 type  2   force =     0.00000000    0.00000000    0.00000000
     atom    2 type  2   force =     0.00000000    0.00000000    0.00000000
     atom    3 type  1   force =     0.00000000    0.00000000    0.00000000
     atom    4 type  1   force =     0.00000000    0.00000000    0.00000000
     The SCF correction term to forces
     atom    1 type  2   force =    -0.00000000    0.00000000   -0.00000690
     atom    2 type  2   force =     0.00000000   -0.00000000   -0.00000690
     atom    3 type  1   force =    -0.00000000    0.00000000   -0.00000354
     atom    4 type  1   force =     0.00000000   -0.00000000   -0.00000354

     Total force =     0.001162     Total SCF correction =     0.000011


     Computing stress (Cartesian axis) and pressure

          total   stress  (Ry/bohr**3)                   (kbar)     P=    -2881.47
  -0.01957636  -0.00000000   0.00000000        -2879.78       -0.00        0.00
  -0.00000000  -0.01957636   0.00000000           -0.00    -2879.78        0.00
   0.00000000   0.00000000  -0.01961074            0.00        0.00    -2884.84

     kinetic stress (kbar)  36053.79      0.00      0.00
                                0.00  36053.79     -0.00
                                0.00     -0.00  36079.79

     local   stress (kbar)  -6135.45     -0.00     -0.00
                               -0.00  -6135.45      0.00
                               -0.00      0.00 -10306.41

     nonloc. stress (kbar)  -3597.18      0.00      0.00
                                0.00  -3597.18      0.00
                                0.00      0.00  -3613.03

     hartree stress (kbar)  63983.25     -0.00      0.00
                               -0.00  63983.25     -0.00
                                0.00     -0.00  65963.87

     exc-cor stress (kbar) -14171.39      0.00     -0.00
                                0.00 -14171.39      0.00
                               -0.00      0.00 -14171.48

     corecor stress (kbar)   -382.41     -0.00      0.00
                               -0.00   -382.41     -0.00
                                0.00     -0.00   -382.42

     ewald   stress (kbar) -78630.39      0.00      0.00
                                0.00 -78630.39      0.00
                                0.00      0.00 -76455.16

     hubbard stress (kbar)      0.00      0.00      0.00
                                0.00      0.00      0.00
                                0.00      0.00      0.00

     DFT-D   stress (kbar)      0.00      0.00      0.00
                                0.00      0.00      0.00
                                0.00      0.00      0.00

     XDM     stress (kbar)      0.00      0.00      0.00
                                0.00      0.00      0.00
                                0.00      0.00      0.00

     dft-nl  stress (kbar)      0.00      0.00      0.00
                                0.00      0.00      0.00
                                0.00      0.00      0.00

     TS-vdW  stress (kbar)      0.00      0.00      0.00
                                0.00      0.00      0.00
                                0.00      0.00      0.00

     MDB     stress (kbar)      0.00      0.00      0.00
                                0.00      0.00      0.00
                                0.00      0.00      0.00

     3D-RISM stress (kbar)      0.00      0.00      0.00
                                0.00      0.00      0.00
                                0.00      0.00      0.00


     Writing all to output data dir ./temp_hexag/aiida.save/ :
     XML data file, charge density, pseudopotentials, collected wavefunctions

     init_run     :    283.38s CPU     12.00s WALL (       1 calls)
     electrons    :   5938.23s CPU    251.83s WALL (       1 calls)
     forces       :    132.59s CPU      5.57s WALL (       1 calls)
     stress       :    182.48s CPU      7.82s WALL (       1 calls)

     Called by init_run:
     wfcinit      :    279.34s CPU     11.67s WALL (       1 calls)
     wfcinit:atom :      3.79s CPU      0.12s WALL (      95 calls)
     wfcinit:wfcr :    272.54s CPU     11.40s WALL (      95 calls)
     potinit      :      1.33s CPU      0.07s WALL (       1 calls)
     hinit0       :      1.42s CPU      0.18s WALL (       1 calls)

     Called by electrons:
     c_bands      :   4900.85s CPU    208.01s WALL (       9 calls)
     sum_band     :   1016.19s CPU     42.76s WALL (       9 calls)
     v_of_rho     :      1.80s CPU      0.10s WALL (      10 calls)
     v_h          :      0.28s CPU      0.03s WALL (      10 calls)
     v_xc         :      1.78s CPU      0.09s WALL (      12 calls)
     newd         :      7.63s CPU      0.46s WALL (      10 calls)
     PAW_pot      :     11.99s CPU      0.51s WALL (      10 calls)
     mix_rho      :      0.69s CPU      0.03s WALL (       9 calls)

     Called by c_bands:
     init_us_2    :     30.57s CPU      1.64s WALL (    1995 calls)
     cegterg      :   4814.83s CPU    204.37s WALL (     855 calls)

     Called by sum_band:
     sum_band:wei :      0.36s CPU      0.01s WALL (       9 calls)
     sum_band:loo :   1011.60s CPU     42.26s WALL (       9 calls)
     sum_band:buf :      3.17s CPU      0.16s WALL (     855 calls)
     sum_band:ini :     15.86s CPU      0.67s WALL (     855 calls)
     sum_band:cal :     38.06s CPU      1.45s WALL (     855 calls)
     sum_band:bec :     49.94s CPU      2.10s WALL (     855 calls)
     addusdens    :      3.94s CPU      0.43s WALL (       9 calls)
                                        0.00s GPU  (       9 calls)
     addusd:skk   :      0.00s CPU      0.00s WALL (      18 calls)
                                        0.00s GPU  (      18 calls)

     Called by *egterg:
     cdiaghg      :     73.68s CPU      2.90s WALL (    2941 calls)
     cegterg:over :    122.58s CPU      4.46s WALL (    2086 calls)
     cegterg:upda :     86.94s CPU      4.19s WALL (    2086 calls)
     cegterg:last :    132.34s CPU      5.99s WALL (    1710 calls)
     h_psi        :   4399.74s CPU    185.72s WALL (    3036 calls)
     s_psi        :     95.83s CPU      4.16s WALL (    3036 calls)
     g_psi        :     38.98s CPU      2.14s WALL (    2086 calls)

     Called by h_psi:
     h_psi:calbec :     90.75s CPU      3.66s WALL (    3036 calls)
     vloc_psi     :   4143.13s CPU    174.95s WALL (    3036 calls)
     add_vuspsi   :    100.31s CPU      4.07s WALL (    3036 calls)

     General routines
     calbec       :    144.20s CPU      5.83s WALL (    4366 calls)
     fft          :      1.81s CPU      0.06s WALL (     153 calls)
     ffts         :      0.23s CPU      0.00s WALL (      19 calls)
     fftw         :    342.99s CPU     15.09s WALL (  159475 calls)
     interpolate  :      0.25s CPU      0.01s WALL (      10 calls)

     Parallel routines

     PAW routines
     PAW_pot      :     11.99s CPU      0.51s WALL (      10 calls)
     PAW_symme    :      0.00s CPU      0.00s WALL (      19 calls)

     PWSCF        :      1h49m CPU   4m38.43s WALL


   This run was terminated on:  14:25:23  12Jun2024            

=------------------------------------------------------------------------------=
   JOB DONE.
=------------------------------------------------------------------------------=
