
     Program PWSCF v.7.3.1 starts on 11Jun2024 at 22: 8: 7 

     This program is part of the open-source Quantum ESPRESSO suite
     for quantum simulation of materials; please cite
         "P. Giannozzi et al., J. Phys.:Condens. Matter 21 395502 (2009);
         "P. Giannozzi et al., J. Phys.:Condens. Matter 29 465901 (2017);
         "P. Giannozzi et al., J. Chem. Phys. 152 154105 (2020);
          URL http://www.quantum-espresso.org", 
     in publications or presentations arising from this work. More details at
     http://www.quantum-espresso.org/quote

     Parallel version (MPI & OpenMP), running on      24 processor cores
     Number of MPI processes:                 1
     Threads/MPI process:                    24

     MPI processes distributed on     1 nodes
     5378 MiB available memory on the printing compute node when the environment starts

     Waiting for input...
     Reading input from standard input

     Current dimensions of program PWSCF are:
     Max number of different atomic species (ntypx) = 10
     Max number of k-points (npk) =  40000
     Max angular momentum in pseudopotentials (lmaxx) =  4

     File ./temp_hexag/aiida.update deleted, as requested

     File ./temp_hexag/aiida.bfgs deleted, as requested
     file O.pbe-n-kjpaw_psl.0.1.UPF: wavefunction(s)  2P renormalized
     Message from routine setup:
     using ibrav=0 with symmetry is DISCOURAGED, use correct ibrav instead

     Subspace diagonalization in iterative solution of the eigenvalue problem:
     a serial algorithm will be used


     G-vector sticks info
     --------------------
     sticks:   dense  smooth     PW     G-vecs:    dense   smooth      PW
     Sum        1039     511    163                43245    15267    2599

     Using Slab Decomposition



     bravais-lattice index     =            0
     lattice parameter (alat)  =       6.1177  a.u.
     unit-cell volume          =     319.8518 (a.u.)^3
     number of atoms/cell      =            4
     number of atomic types    =            2
     number of electrons       =        52.00
     number of Kohn-Sham states=           31
     kinetic-energy cutoff     =      50.0000  Ry
     charge density cutoff     =     400.0000  Ry
     scf convergence threshold =      2.0E-08
     mixing beta               =       0.4000
     number of iterations used =            8  plain     mixing
     energy convergence thresh.=      4.0E-05
     force convergence thresh. =      1.0E-04
     press convergence thresh. =      5.0E-01
     Exchange-correlation= SLA  PW   PBE  PBE
                           (   1   4   3   4   0   0   0)
     nstep                     =           50


     celldm(1)=   6.117707  celldm(2)=   0.000000  celldm(3)=   0.000000
     celldm(4)=   0.000000  celldm(5)=   0.000000  celldm(6)=   0.000000

     crystal axes: (cart. coord. in units of alat)
               a(1) = (   1.000000   0.000000   0.000000 )  
               a(2) = (  -0.500000   0.866025   0.000000 )  
               a(3) = (   0.000000   0.000000   1.613066 )  

     reciprocal axes: (cart. coord. in units 2 pi/alat)
               b(1) = (  1.000000  0.577350 -0.000000 )  
               b(2) = (  0.000000  1.154701  0.000000 )  
               b(3) = (  0.000000 -0.000000  0.619937 )  


     PseudoPot. # 1 for O  read from file:
     ../SSSP_1.3.0_PBE_efficiency/O.pbe-n-kjpaw_psl.0.1.UPF
     MD5 check sum: 0234752ac141de4415c5fc33072bef88
     Pseudo is Projector augmented-wave + core cor, Zval =  6.0
     Generated using "atomic" code by A. Dal Corso  v.5.0.99 svn rev. 10869
     Shape of augmentation charge: BESSEL
     Using radial grid of 1095 points,  4 beta functions with: 
                l(1) =   0
                l(2) =   0
                l(3) =   1
                l(4) =   1
     Q(r) pseudized with 0 coefficients 


     PseudoPot. # 2 for Zn read from file:
     ../SSSP_1.3.0_PBE_efficiency/Zn_pbe_v1.uspp.F.UPF
     MD5 check sum: df62231357ef9e81f77b2b3087fa5675
     Pseudo is Ultrasoft, Zval = 20.0
     Generated by new atomic code, or converted to UPF format
     Using radial grid of  943 points,  6 beta functions with: 
                l(1) =   0
                l(2) =   0
                l(3) =   1
                l(4) =   1
                l(5) =   2
                l(6) =   2
     Q(r) pseudized with  8 coefficients,  rinner =    1.100   1.100   1.100
                                                       1.100   1.100

     atomic species   valence    mass     pseudopotential
     O                 6.00    15.99940     O ( 1.00)
     Zn               20.00    65.38000     Zn( 1.00)

     12 Sym. Ops. (no inversion) found ( 6 have fractional translation)


                                    s                        frac. trans.

      isym =  1     identity                                     

 cryst.   s( 1) = (     1          0          0      )
                  (     0          1          0      )
                  (     0          0          1      )

 cart.    s( 1) = (  1.0000000  0.0000000  0.0000000 )
                  (  0.0000000  1.0000000  0.0000000 )
                  (  0.0000000  0.0000000  1.0000000 )


      isym =  2     180 deg rotation - cart. axis [0,0,1]        

 cryst.   s( 2) = (    -1          0          0      )    f =(  0.0000000 )
                  (     0         -1          0      )       ( -0.0000000 )
                  (     0          0          1      )       (  0.5000000 )

 cart.    s( 2) = ( -1.0000000  0.0000000  0.0000000 )    f =(  0.0000000 )
                  (  0.0000000 -1.0000000  0.0000000 )       ( -0.0000000 )
                  (  0.0000000  0.0000000  1.0000000 )       (  0.8065331 )


      isym =  3      60 deg rotation - cryst. axis [0,0,1]       

 cryst.   s( 3) = (     1          1          0      )    f =( -0.0000000 )
                  (    -1          0          0      )       (  0.0000000 )
                  (     0          0          1      )       (  0.5000000 )

 cart.    s( 3) = (  0.5000000 -0.8660254  0.0000000 )    f =( -0.0000000 )
                  (  0.8660254  0.5000000  0.0000000 )       (  0.0000000 )
                  (  0.0000000  0.0000000  1.0000000 )       (  0.8065331 )


      isym =  4      60 deg rotation - cryst. axis [0,0,-1]      

 cryst.   s( 4) = (     0         -1          0      )    f =(  0.0000000 )
                  (     1          1          0      )       (  0.0000000 )
                  (     0          0          1      )       (  0.5000000 )

 cart.    s( 4) = (  0.5000000  0.8660254  0.0000000 )    f =( -0.0000000 )
                  ( -0.8660254  0.5000000  0.0000000 )       (  0.0000000 )
                  (  0.0000000  0.0000000  1.0000000 )       (  0.8065331 )


      isym =  5     120 deg rotation - cryst. axis [0,0,1]       

 cryst.   s( 5) = (     0          1          0      )
                  (    -1         -1          0      )
                  (     0          0          1      )

 cart.    s( 5) = ( -0.5000000 -0.8660254  0.0000000 )
                  (  0.8660254 -0.5000000  0.0000000 )
                  (  0.0000000  0.0000000  1.0000000 )


      isym =  6     120 deg rotation - cryst. axis [0,0,-1]      

 cryst.   s( 6) = (    -1         -1          0      )
                  (     1          0          0      )
                  (     0          0          1      )

 cart.    s( 6) = ( -0.5000000  0.8660254  0.0000000 )
                  ( -0.8660254 -0.5000000  0.0000000 )
                  (  0.0000000  0.0000000  1.0000000 )


      isym =  7     inv. 180 deg rotation - cart. axis [0,1,0]   

 cryst.   s( 7) = (     1          0          0      )    f =( -0.0000000 )
                  (    -1         -1          0      )       ( -0.0000000 )
                  (     0          0          1      )       (  0.5000000 )

 cart.    s( 7) = (  1.0000000  0.0000000  0.0000000 )    f =( -0.0000000 )
                  (  0.0000000 -1.0000000  0.0000000 )       ( -0.0000000 )
                  (  0.0000000  0.0000000  1.0000000 )       (  0.8065331 )


      isym =  8     inv. 180 deg rotation - cart. axis [1,0,0]   

 cryst.   s( 8) = (    -1          0          0      )
                  (     1          1          0      )
                  (     0          0          1      )

 cart.    s( 8) = ( -1.0000000  0.0000000  0.0000000 )
                  (  0.0000000  1.0000000  0.0000000 )
                  (  0.0000000  0.0000000  1.0000000 )


      isym =  9     inv. 180 deg rotation - cryst. axis [1,-1,0] 

 cryst.   s( 9) = (     0          1          0      )    f =(  0.0000000 )
                  (     1          0          0      )       (  0.0000000 )
                  (     0          0          1      )       (  0.5000000 )

 cart.    s( 9) = ( -0.5000000  0.8660254  0.0000000 )    f =(  0.0000000 )
                  (  0.8660254  0.5000000  0.0000000 )       (  0.0000000 )
                  (  0.0000000  0.0000000  1.0000000 )       (  0.8065331 )


      isym = 10     inv. 180 deg rotation - cryst. axis [2,1,0]  

 cryst.   s(10) = (    -1         -1          0      )    f =(  0.0000000 )
                  (     0          1          0      )       (  0.0000000 )
                  (     0          0          1      )       (  0.5000000 )

 cart.    s(10) = ( -0.5000000 -0.8660254  0.0000000 )    f =( -0.0000000 )
                  ( -0.8660254  0.5000000  0.0000000 )       (  0.0000000 )
                  (  0.0000000  0.0000000  1.0000000 )       (  0.8065331 )


      isym = 11     inv. 180 deg rotation - cryst. axis [0,1,0]  

 cryst.   s(11) = (     1          1          0      )
                  (     0         -1          0      )
                  (     0          0          1      )

 cart.    s(11) = (  0.5000000  0.8660254  0.0000000 )
                  (  0.8660254 -0.5000000  0.0000000 )
                  (  0.0000000  0.0000000  1.0000000 )


      isym = 12     inv. 180 deg rotation - cryst. axis [1,1,0]  

 cryst.   s(12) = (     0         -1          0      )
                  (    -1          0          0      )
                  (     0          0          1      )

 cart.    s(12) = (  0.5000000 -0.8660254  0.0000000 )
                  ( -0.8660254 -0.5000000  0.0000000 )
                  (  0.0000000  0.0000000  1.0000000 )


   Cartesian axes

     site n.     atom                  positions (alat units)
         1        Zn     tau(   1) = (   0.5000000   0.2886751   0.8074875  )
         2        Zn     tau(   2) = (  -0.0000000   0.5773503   0.0009545  )
         3        O      tau(   3) = (   0.5000000   0.2886751   1.4190438  )
         4        O      tau(   4) = (  -0.0000000   0.5773503   0.6125107  )

   Crystallographic axes

     site n.     atom                  positions (cryst. coord.)
         1        Zn     tau(   1) = (  0.6666667  0.3333333  0.5005917  )
         2        Zn     tau(   2) = (  0.3333333  0.6666667  0.0005917  )
         3        O      tau(   3) = (  0.6666667  0.3333333  0.8797183  )
         4        O      tau(   4) = (  0.3333333  0.6666667  0.3797183  )

     number of k points=    95  Marzari-Vanderbilt smearing, width (Ry)=  0.0147
                       cart. coord. in units 2pi/alat
        k(    1) = (   0.0000000   0.0000000   0.0000000), wk =   0.0017361
        k(    2) = (   0.0000000   0.0000000   0.0774922), wk =   0.0034722
        k(    3) = (   0.0000000   0.0000000   0.1549843), wk =   0.0034722
        k(    4) = (   0.0000000   0.0000000   0.2324765), wk =   0.0034722
        k(    5) = (   0.0000000   0.0000000  -0.3099687), wk =   0.0017361
        k(    6) = (   0.0000000   0.0962250   0.0000000), wk =   0.0104167
        k(    7) = (   0.0000000   0.0962250   0.0774922), wk =   0.0208333
        k(    8) = (   0.0000000   0.0962250   0.1549843), wk =   0.0208333
        k(    9) = (   0.0000000   0.0962250   0.2324765), wk =   0.0208333
        k(   10) = (   0.0000000   0.0962250  -0.3099687), wk =   0.0104167
        k(   11) = (   0.0000000   0.1924501   0.0000000), wk =   0.0104167
        k(   12) = (   0.0000000   0.1924501   0.0774922), wk =   0.0208333
        k(   13) = (   0.0000000   0.1924501   0.1549843), wk =   0.0208333
        k(   14) = (   0.0000000   0.1924501   0.2324765), wk =   0.0208333
        k(   15) = (   0.0000000   0.1924501  -0.3099687), wk =   0.0104167
        k(   16) = (   0.0000000   0.2886751   0.0000000), wk =   0.0104167
        k(   17) = (   0.0000000   0.2886751   0.0774922), wk =   0.0208333
        k(   18) = (   0.0000000   0.2886751   0.1549843), wk =   0.0208333
        k(   19) = (   0.0000000   0.2886751   0.2324765), wk =   0.0208333
        k(   20) = (   0.0000000   0.2886751  -0.3099687), wk =   0.0104167
        k(   21) = (   0.0000000   0.3849002   0.0000000), wk =   0.0104167
        k(   22) = (   0.0000000   0.3849002   0.0774922), wk =   0.0208333
        k(   23) = (   0.0000000   0.3849002   0.1549843), wk =   0.0208333
        k(   24) = (   0.0000000   0.3849002   0.2324765), wk =   0.0208333
        k(   25) = (   0.0000000   0.3849002  -0.3099687), wk =   0.0104167
        k(   26) = (   0.0000000   0.4811252   0.0000000), wk =   0.0104167
        k(   27) = (   0.0000000   0.4811252   0.0774922), wk =   0.0208333
        k(   28) = (   0.0000000   0.4811252   0.1549843), wk =   0.0208333
        k(   29) = (   0.0000000   0.4811252   0.2324765), wk =   0.0208333
        k(   30) = (   0.0000000   0.4811252  -0.3099687), wk =   0.0104167
        k(   31) = (   0.0000000  -0.5773503   0.0000000), wk =   0.0052083
        k(   32) = (   0.0000000  -0.5773503   0.0774922), wk =   0.0104167
        k(   33) = (   0.0000000  -0.5773503   0.1549843), wk =   0.0104167
        k(   34) = (   0.0000000  -0.5773503   0.2324765), wk =   0.0104167
        k(   35) = (   0.0000000  -0.5773503  -0.3099687), wk =   0.0052083
        k(   36) = (   0.0833333   0.1443376   0.0000000), wk =   0.0104167
        k(   37) = (   0.0833333   0.1443376   0.0774922), wk =   0.0208333
        k(   38) = (   0.0833333   0.1443376   0.1549843), wk =   0.0208333
        k(   39) = (   0.0833333   0.1443376   0.2324765), wk =   0.0208333
        k(   40) = (   0.0833333   0.1443376  -0.3099687), wk =   0.0104167
        k(   41) = (   0.0833333   0.2405626   0.0000000), wk =   0.0208333
        k(   42) = (   0.0833333   0.2405626   0.0774922), wk =   0.0416667
        k(   43) = (   0.0833333   0.2405626   0.1549843), wk =   0.0416667
        k(   44) = (   0.0833333   0.2405626   0.2324765), wk =   0.0416667
        k(   45) = (   0.0833333   0.2405626  -0.3099687), wk =   0.0208333
        k(   46) = (   0.0833333   0.3367877   0.0000000), wk =   0.0208333
        k(   47) = (   0.0833333   0.3367877   0.0774922), wk =   0.0416667
        k(   48) = (   0.0833333   0.3367877   0.1549843), wk =   0.0416667
        k(   49) = (   0.0833333   0.3367877   0.2324765), wk =   0.0416667
        k(   50) = (   0.0833333   0.3367877  -0.3099687), wk =   0.0208333
        k(   51) = (   0.0833333   0.4330127   0.0000000), wk =   0.0208333
        k(   52) = (   0.0833333   0.4330127   0.0774922), wk =   0.0416667
        k(   53) = (   0.0833333   0.4330127   0.1549843), wk =   0.0416667
        k(   54) = (   0.0833333   0.4330127   0.2324765), wk =   0.0416667
        k(   55) = (   0.0833333   0.4330127  -0.3099687), wk =   0.0208333
        k(   56) = (   0.0833333   0.5292377   0.0000000), wk =   0.0208333
        k(   57) = (   0.0833333   0.5292377   0.0774922), wk =   0.0416667
        k(   58) = (   0.0833333   0.5292377   0.1549843), wk =   0.0416667
        k(   59) = (   0.0833333   0.5292377   0.2324765), wk =   0.0416667
        k(   60) = (   0.0833333   0.5292377  -0.3099687), wk =   0.0208333
        k(   61) = (   0.1666667   0.2886751   0.0000000), wk =   0.0104167
        k(   62) = (   0.1666667   0.2886751   0.0774922), wk =   0.0208333
        k(   63) = (   0.1666667   0.2886751   0.1549843), wk =   0.0208333
        k(   64) = (   0.1666667   0.2886751   0.2324765), wk =   0.0208333
        k(   65) = (   0.1666667   0.2886751  -0.3099687), wk =   0.0104167
        k(   66) = (   0.1666667   0.3849002   0.0000000), wk =   0.0208333
        k(   67) = (   0.1666667   0.3849002   0.0774922), wk =   0.0416667
        k(   68) = (   0.1666667   0.3849002   0.1549843), wk =   0.0416667
        k(   69) = (   0.1666667   0.3849002   0.2324765), wk =   0.0416667
        k(   70) = (   0.1666667   0.3849002  -0.3099687), wk =   0.0208333
        k(   71) = (   0.1666667   0.4811252   0.0000000), wk =   0.0208333
        k(   72) = (   0.1666667   0.4811252   0.0774922), wk =   0.0416667
        k(   73) = (   0.1666667   0.4811252   0.1549843), wk =   0.0416667
        k(   74) = (   0.1666667   0.4811252   0.2324765), wk =   0.0416667
        k(   75) = (   0.1666667   0.4811252  -0.3099687), wk =   0.0208333
        k(   76) = (   0.1666667   0.5773503   0.0000000), wk =   0.0104167
        k(   77) = (   0.1666667   0.5773503   0.0774922), wk =   0.0208333
        k(   78) = (   0.1666667   0.5773503   0.1549843), wk =   0.0208333
        k(   79) = (   0.1666667   0.5773503   0.2324765), wk =   0.0208333
        k(   80) = (   0.1666667   0.5773503  -0.3099687), wk =   0.0104167
        k(   81) = (   0.2500000   0.4330127   0.0000000), wk =   0.0104167
        k(   82) = (   0.2500000   0.4330127   0.0774922), wk =   0.0208333
        k(   83) = (   0.2500000   0.4330127   0.1549843), wk =   0.0208333
        k(   84) = (   0.2500000   0.4330127   0.2324765), wk =   0.0208333
        k(   85) = (   0.2500000   0.4330127  -0.3099687), wk =   0.0104167
        k(   86) = (   0.2500000   0.5292377   0.0000000), wk =   0.0208333
        k(   87) = (   0.2500000   0.5292377   0.0774922), wk =   0.0416667
        k(   88) = (   0.2500000   0.5292377   0.1549843), wk =   0.0416667
        k(   89) = (   0.2500000   0.5292377   0.2324765), wk =   0.0416667
        k(   90) = (   0.2500000   0.5292377  -0.3099687), wk =   0.0208333
        k(   91) = (   0.3333333   0.5773503   0.0000000), wk =   0.0034722
        k(   92) = (   0.3333333   0.5773503   0.0774922), wk =   0.0069444
        k(   93) = (   0.3333333   0.5773503   0.1549843), wk =   0.0069444
        k(   94) = (   0.3333333   0.5773503   0.2324765), wk =   0.0069444
        k(   95) = (   0.3333333   0.5773503  -0.3099687), wk =   0.0034722

                       cryst. coord.
        k(    1) = (   0.0000000   0.0000000   0.0000000), wk =   0.0017361
        k(    2) = (   0.0000000   0.0000000   0.1250000), wk =   0.0034722
        k(    3) = (   0.0000000   0.0000000   0.2500000), wk =   0.0034722
        k(    4) = (   0.0000000   0.0000000   0.3750000), wk =   0.0034722
        k(    5) = (   0.0000000   0.0000000  -0.5000000), wk =   0.0017361
        k(    6) = (   0.0000000   0.0833333   0.0000000), wk =   0.0104167
        k(    7) = (   0.0000000   0.0833333   0.1250000), wk =   0.0208333
        k(    8) = (   0.0000000   0.0833333   0.2500000), wk =   0.0208333
        k(    9) = (   0.0000000   0.0833333   0.3750000), wk =   0.0208333
        k(   10) = (   0.0000000   0.0833333  -0.5000000), wk =   0.0104167
        k(   11) = (   0.0000000   0.1666667   0.0000000), wk =   0.0104167
        k(   12) = (   0.0000000   0.1666667   0.1250000), wk =   0.0208333
        k(   13) = (   0.0000000   0.1666667   0.2500000), wk =   0.0208333
        k(   14) = (   0.0000000   0.1666667   0.3750000), wk =   0.0208333
        k(   15) = (   0.0000000   0.1666667  -0.5000000), wk =   0.0104167
        k(   16) = (   0.0000000   0.2500000   0.0000000), wk =   0.0104167
        k(   17) = (   0.0000000   0.2500000   0.1250000), wk =   0.0208333
        k(   18) = (   0.0000000   0.2500000   0.2500000), wk =   0.0208333
        k(   19) = (   0.0000000   0.2500000   0.3750000), wk =   0.0208333
        k(   20) = (   0.0000000   0.2500000  -0.5000000), wk =   0.0104167
        k(   21) = (   0.0000000   0.3333333   0.0000000), wk =   0.0104167
        k(   22) = (   0.0000000   0.3333333   0.1250000), wk =   0.0208333
        k(   23) = (   0.0000000   0.3333333   0.2500000), wk =   0.0208333
        k(   24) = (   0.0000000   0.3333333   0.3750000), wk =   0.0208333
        k(   25) = (   0.0000000   0.3333333  -0.5000000), wk =   0.0104167
        k(   26) = (   0.0000000   0.4166667   0.0000000), wk =   0.0104167
        k(   27) = (   0.0000000   0.4166667   0.1250000), wk =   0.0208333
        k(   28) = (   0.0000000   0.4166667   0.2500000), wk =   0.0208333
        k(   29) = (   0.0000000   0.4166667   0.3750000), wk =   0.0208333
        k(   30) = (   0.0000000   0.4166667  -0.5000000), wk =   0.0104167
        k(   31) = (   0.0000000  -0.5000000   0.0000000), wk =   0.0052083
        k(   32) = (   0.0000000  -0.5000000   0.1250000), wk =   0.0104167
        k(   33) = (   0.0000000  -0.5000000   0.2500000), wk =   0.0104167
        k(   34) = (   0.0000000  -0.5000000   0.3750000), wk =   0.0104167
        k(   35) = (   0.0000000  -0.5000000  -0.5000000), wk =   0.0052083
        k(   36) = (   0.0833333   0.0833333   0.0000000), wk =   0.0104167
        k(   37) = (   0.0833333   0.0833333   0.1250000), wk =   0.0208333
        k(   38) = (   0.0833333   0.0833333   0.2500000), wk =   0.0208333
        k(   39) = (   0.0833333   0.0833333   0.3750000), wk =   0.0208333
        k(   40) = (   0.0833333   0.0833333  -0.5000000), wk =   0.0104167
        k(   41) = (   0.0833333   0.1666667   0.0000000), wk =   0.0208333
        k(   42) = (   0.0833333   0.1666667   0.1250000), wk =   0.0416667
        k(   43) = (   0.0833333   0.1666667   0.2500000), wk =   0.0416667
        k(   44) = (   0.0833333   0.1666667   0.3750000), wk =   0.0416667
        k(   45) = (   0.0833333   0.1666667  -0.5000000), wk =   0.0208333
        k(   46) = (   0.0833333   0.2500000   0.0000000), wk =   0.0208333
        k(   47) = (   0.0833333   0.2500000   0.1250000), wk =   0.0416667
        k(   48) = (   0.0833333   0.2500000   0.2500000), wk =   0.0416667
        k(   49) = (   0.0833333   0.2500000   0.3750000), wk =   0.0416667
        k(   50) = (   0.0833333   0.2500000  -0.5000000), wk =   0.0208333
        k(   51) = (   0.0833333   0.3333333   0.0000000), wk =   0.0208333
        k(   52) = (   0.0833333   0.3333333   0.1250000), wk =   0.0416667
        k(   53) = (   0.0833333   0.3333333   0.2500000), wk =   0.0416667
        k(   54) = (   0.0833333   0.3333333   0.3750000), wk =   0.0416667
        k(   55) = (   0.0833333   0.3333333  -0.5000000), wk =   0.0208333
        k(   56) = (   0.0833333   0.4166667   0.0000000), wk =   0.0208333
        k(   57) = (   0.0833333   0.4166667   0.1250000), wk =   0.0416667
        k(   58) = (   0.0833333   0.4166667   0.2500000), wk =   0.0416667
        k(   59) = (   0.0833333   0.4166667   0.3750000), wk =   0.0416667
        k(   60) = (   0.0833333   0.4166667  -0.5000000), wk =   0.0208333
        k(   61) = (   0.1666667   0.1666667   0.0000000), wk =   0.0104167
        k(   62) = (   0.1666667   0.1666667   0.1250000), wk =   0.0208333
        k(   63) = (   0.1666667   0.1666667   0.2500000), wk =   0.0208333
        k(   64) = (   0.1666667   0.1666667   0.3750000), wk =   0.0208333
        k(   65) = (   0.1666667   0.1666667  -0.5000000), wk =   0.0104167
        k(   66) = (   0.1666667   0.2500000   0.0000000), wk =   0.0208333
        k(   67) = (   0.1666667   0.2500000   0.1250000), wk =   0.0416667
        k(   68) = (   0.1666667   0.2500000   0.2500000), wk =   0.0416667
        k(   69) = (   0.1666667   0.2500000   0.3750000), wk =   0.0416667
        k(   70) = (   0.1666667   0.2500000  -0.5000000), wk =   0.0208333
        k(   71) = (   0.1666667   0.3333333   0.0000000), wk =   0.0208333
        k(   72) = (   0.1666667   0.3333333   0.1250000), wk =   0.0416667
        k(   73) = (   0.1666667   0.3333333   0.2500000), wk =   0.0416667
        k(   74) = (   0.1666667   0.3333333   0.3750000), wk =   0.0416667
        k(   75) = (   0.1666667   0.3333333  -0.5000000), wk =   0.0208333
        k(   76) = (   0.1666667   0.4166667   0.0000000), wk =   0.0104167
        k(   77) = (   0.1666667   0.4166667   0.1250000), wk =   0.0208333
        k(   78) = (   0.1666667   0.4166667   0.2500000), wk =   0.0208333
        k(   79) = (   0.1666667   0.4166667   0.3750000), wk =   0.0208333
        k(   80) = (   0.1666667   0.4166667  -0.5000000), wk =   0.0104167
        k(   81) = (   0.2500000   0.2500000   0.0000000), wk =   0.0104167
        k(   82) = (   0.2500000   0.2500000   0.1250000), wk =   0.0208333
        k(   83) = (   0.2500000   0.2500000   0.2500000), wk =   0.0208333
        k(   84) = (   0.2500000   0.2500000   0.3750000), wk =   0.0208333
        k(   85) = (   0.2500000   0.2500000  -0.5000000), wk =   0.0104167
        k(   86) = (   0.2500000   0.3333333   0.0000000), wk =   0.0208333
        k(   87) = (   0.2500000   0.3333333   0.1250000), wk =   0.0416667
        k(   88) = (   0.2500000   0.3333333   0.2500000), wk =   0.0416667
        k(   89) = (   0.2500000   0.3333333   0.3750000), wk =   0.0416667
        k(   90) = (   0.2500000   0.3333333  -0.5000000), wk =   0.0208333
        k(   91) = (   0.3333333   0.3333333   0.0000000), wk =   0.0034722
        k(   92) = (   0.3333333   0.3333333   0.1250000), wk =   0.0069444
        k(   93) = (   0.3333333   0.3333333   0.2500000), wk =   0.0069444
        k(   94) = (   0.3333333   0.3333333   0.3750000), wk =   0.0069444
        k(   95) = (   0.3333333   0.3333333  -0.5000000), wk =   0.0034722

     Dense  grid:    43245 G-vectors     FFT dimensions: (  40,  40,  64)

     Smooth grid:    15267 G-vectors     FFT dimensions: (  27,  27,  48)

     Dynamical RAM for                 wfc:       0.90 MB

     Dynamical RAM for     wfc (w. buffer):      86.73 MB

     Dynamical RAM for           str. fact:       1.32 MB

     Dynamical RAM for           local pot:       0.00 MB

     Dynamical RAM for          nlocal pot:       1.52 MB

     Dynamical RAM for                qrad:       6.42 MB

     Dynamical RAM for          rho,v,vnew:       4.32 MB

     Dynamical RAM for               rhoin:       1.44 MB

     Dynamical RAM for            rho*nmix:      10.56 MB

     Dynamical RAM for           G-vectors:       2.59 MB

     Dynamical RAM for          h,s,v(r/c):       0.18 MB

     Dynamical RAM for          <psi|beta>:       0.02 MB

     Dynamical RAM for                 psi:       1.81 MB

     Dynamical RAM for                hpsi:       1.81 MB

     Dynamical RAM for                spsi:       1.81 MB

     Dynamical RAM for      wfcinit/wfcrot:       2.01 MB

     Dynamical RAM for           addusdens:     124.05 MB

     Dynamical RAM for          addusforce:     125.71 MB

     Dynamical RAM for         addusstress:     132.63 MB

     Estimated static dynamical RAM per process >     110.23 MB

     Estimated max dynamical RAM per process >     253.42 MB

     Check: negative core charge=   -0.000003

     Initial potential from superposition of free atoms

     starting charge      51.9997, renormalised to      52.0000
     Starting wfcs are   34 randomized atomic wfcs
     Checking if some PAW data can be deallocated... 

     total cpu time spent up to now is       24.6 secs

     Self-consistent Calculation

     iteration #  1     ecut=    50.00 Ry     beta= 0.40
     Davidson diagonalization with overlap

---- Real-time Memory Report at c_bands before calling an iterative solver
           181 MiB given to the printing process from OS
             0 MiB allocation reported by mallinfo(arena+hblkhd)
          5282 MiB available memory on the node where the printing process lives
------------------
     ethr =  1.00E-02,  avg # of iterations =  2.9

     total cpu time spent up to now is       98.8 secs

     total energy              =   -1006.32244563 Ry
     estimated scf accuracy    <       0.85223649 Ry

     iteration #  2     ecut=    50.00 Ry     beta= 0.40
     Davidson diagonalization with overlap

---- Real-time Memory Report at c_bands before calling an iterative solver
           304 MiB given to the printing process from OS
             0 MiB allocation reported by mallinfo(arena+hblkhd)
          5229 MiB available memory on the node where the printing process lives
------------------
     ethr =  1.64E-03,  avg # of iterations =  2.0

     total cpu time spent up to now is      172.3 secs

     WARNING: integrated charge=    52.00026120, expected=    52.00000000

     total energy              =   -1006.55384909 Ry
     estimated scf accuracy    <       0.10175735 Ry

     iteration #  3     ecut=    50.00 Ry     beta= 0.40
     Davidson diagonalization with overlap

---- Real-time Memory Report at c_bands before calling an iterative solver
           304 MiB given to the printing process from OS
             0 MiB allocation reported by mallinfo(arena+hblkhd)
          5225 MiB available memory on the node where the printing process lives
------------------
     ethr =  1.96E-04,  avg # of iterations =  2.3

     total cpu time spent up to now is      225.8 secs

     WARNING: integrated charge=    52.00018136, expected=    52.00000000

     total energy              =   -1006.56803665 Ry
     estimated scf accuracy    <       0.00918383 Ry

     iteration #  4     ecut=    50.00 Ry     beta= 0.40
     Davidson diagonalization with overlap

---- Real-time Memory Report at c_bands before calling an iterative solver
           305 MiB given to the printing process from OS
             0 MiB allocation reported by mallinfo(arena+hblkhd)
          5227 MiB available memory on the node where the printing process lives
------------------
     ethr =  1.77E-05,  avg # of iterations =  3.7

     total cpu time spent up to now is      244.4 secs

     WARNING: integrated charge=    52.00009401, expected=    52.00000000

     total energy              =   -1006.56830846 Ry
     estimated scf accuracy    <       0.00171580 Ry

     iteration #  5     ecut=    50.00 Ry     beta= 0.40
     Davidson diagonalization with overlap

---- Real-time Memory Report at c_bands before calling an iterative solver
           305 MiB given to the printing process from OS
             0 MiB allocation reported by mallinfo(arena+hblkhd)
          5226 MiB available memory on the node where the printing process lives
------------------
     ethr =  3.30E-06,  avg # of iterations =  2.5

     total cpu time spent up to now is      262.2 secs

     WARNING: integrated charge=    52.00008157, expected=    52.00000000

     total energy              =   -1006.56839665 Ry
     estimated scf accuracy    <       0.00004171 Ry

     iteration #  6     ecut=    50.00 Ry     beta= 0.40
     Davidson diagonalization with overlap

---- Real-time Memory Report at c_bands before calling an iterative solver
           306 MiB given to the printing process from OS
             0 MiB allocation reported by mallinfo(arena+hblkhd)
          5226 MiB available memory on the node where the printing process lives
------------------
     ethr =  8.02E-08,  avg # of iterations =  3.1

     total cpu time spent up to now is      285.8 secs

     WARNING: integrated charge=    52.00007294, expected=    52.00000000

     total energy              =   -1006.56840315 Ry
     estimated scf accuracy    <       0.00007502 Ry

     iteration #  7     ecut=    50.00 Ry     beta= 0.40
     Davidson diagonalization with overlap

---- Real-time Memory Report at c_bands before calling an iterative solver
           306 MiB given to the printing process from OS
             0 MiB allocation reported by mallinfo(arena+hblkhd)
          5224 MiB available memory on the node where the printing process lives
------------------
     ethr =  8.02E-08,  avg # of iterations =  2.0

     total cpu time spent up to now is      305.1 secs

     WARNING: integrated charge=    52.00007105, expected=    52.00000000

     total energy              =   -1006.56841913 Ry
     estimated scf accuracy    <       0.00000025 Ry

     iteration #  8     ecut=    50.00 Ry     beta= 0.40
     Davidson diagonalization with overlap

---- Real-time Memory Report at c_bands before calling an iterative solver
           307 MiB given to the printing process from OS
             0 MiB allocation reported by mallinfo(arena+hblkhd)
          5225 MiB available memory on the node where the printing process lives
------------------
     ethr =  4.84E-10,  avg # of iterations =  3.1

     total cpu time spent up to now is      332.0 secs

     WARNING: integrated charge=    52.00007119, expected=    52.00000000

     total energy              =   -1006.56841923 Ry
     estimated scf accuracy    <       0.00000021 Ry

     iteration #  9     ecut=    50.00 Ry     beta= 0.40
     Davidson diagonalization with overlap

---- Real-time Memory Report at c_bands before calling an iterative solver
           307 MiB given to the printing process from OS
             0 MiB allocation reported by mallinfo(arena+hblkhd)
          5190 MiB available memory on the node where the printing process lives
------------------
     ethr =  4.01E-10,  avg # of iterations =  2.5

     total cpu time spent up to now is      353.7 secs

     WARNING: integrated charge=    52.00007088, expected=    52.00000000

     total energy              =   -1006.56841924 Ry
     estimated scf accuracy    <       0.00000016 Ry

     iteration # 10     ecut=    50.00 Ry     beta= 0.40
     Davidson diagonalization with overlap

---- Real-time Memory Report at c_bands before calling an iterative solver
           308 MiB given to the printing process from OS
             0 MiB allocation reported by mallinfo(arena+hblkhd)
          5187 MiB available memory on the node where the printing process lives
------------------
     ethr =  3.16E-10,  avg # of iterations =  2.0

     total cpu time spent up to now is      372.7 secs

     End of self-consistent calculation

          k = 0.0000 0.0000 0.0000 (  1883 PWs)   bands (ev):

  -114.5439-114.5438 -68.7446 -68.7413 -68.7392 -68.7392 -68.7386 -68.7386
    -9.2215  -8.4882   3.1605   3.1605   3.2058   3.2315   3.3548   3.3548
     4.3467   4.3467   4.5583   4.5583   4.8357   8.0976   8.0976   8.8064
     8.8968   8.8968   9.6968  14.1535  17.1117  21.8530  21.8530

     occupation numbers 
     1.0000   1.0000   1.0000   1.0000   1.0000   1.0000   1.0000   1.0000
     1.0000   1.0000   1.0000   1.0000   1.0000   1.0000   1.0000   1.0000
     1.0000   1.0000   1.0000   1.0000   1.0000   1.0000   1.0000   1.0002
     1.0020   1.0020   0.0232   0.0000   0.0000   0.0000   0.0000

          k = 0.0000 0.0000 0.0775 (  1876 PWs)   bands (ev):

  -114.5439-114.5438 -68.7445 -68.7415 -68.7391 -68.7391 -68.7386 -68.7386
    -9.1951  -8.5177   3.1601   3.1644   3.1644   3.1763   3.3434   3.3434
     4.3578   4.3578   4.5538   4.5538   5.0178   8.1286   8.1286   8.4398
     8.8671   8.8671  10.1136  14.0149  17.2342  21.8538  21.8538

     occupation numbers 
     1.0000   1.0000   1.0000   1.0000   1.0000   1.0000   1.0000   1.0000
     1.0000   1.0000   1.0000   1.0000   1.0000   1.0000   1.0000   1.0000
     1.0000   1.0000   1.0000   1.0000   1.0000   1.0000   1.0000   1.0000
     1.0010   1.0010   0.0000   0.0000   0.0000   0.0000   0.0000

          k = 0.0000 0.0000 0.1550 (  1882 PWs)   bands (ev):

  -114.5439-114.5438 -68.7441 -68.7420 -68.7391 -68.7391 -68.7387 -68.7387
    -9.1193  -8.6009   3.0336   3.1008   3.1769   3.1769   3.3131   3.3131
     4.3880   4.3880   4.5389   4.5389   5.4630   7.8555   8.2167   8.2167
     8.7821   8.7821  10.8304  13.6291  17.5919  21.2006  21.8758

     occupation numbers 
     1.0000   1.0000   1.0000   1.0000   1.0000   1.0000   1.0000   1.0000
     1.0000   1.0000   1.0000   1.0000   1.0000   1.0000   1.0000   1.0000
     1.0000   1.0000   1.0000   1.0000   1.0000   1.0000   1.0000   1.0000
     1.0001   1.0001   0.0000   0.0000   0.0000   0.0000   0.0000

          k = 0.0000 0.0000 0.2325 (  1888 PWs)   bands (ev):

  -114.5439-114.5438 -68.7438 -68.7425 -68.7390 -68.7390 -68.7388 -68.7388
    -9.0041  -8.7236   2.9545   3.0125   3.1996   3.1996   3.2729   3.2729
     4.4300   4.4300   4.5121   4.5121   6.0306   7.2517   8.3479   8.3479
     8.6541   8.6541  11.6025  13.0579  18.1756  20.0163  21.9598

     occupation numbers 
     1.0000   1.0000   1.0000   1.0000   1.0000   1.0000   1.0000   1.0000
     1.0000   1.0000   1.0000   1.0000   1.0000   1.0000   1.0000   1.0000
     1.0000   1.0000   1.0000   1.0000   1.0000   1.0000   1.0000   1.0000
     1.0000   1.0000   0.0000   0.0000   0.0000   0.0000   0.0000

          k = 0.0000 0.0000-0.3100 (  1894 PWs)   bands (ev):

  -114.5439-114.5439 -68.7432 -68.7432 -68.7389 -68.7389 -68.7389 -68.7389
    -8.8654  -8.8654   2.9522   2.9522   3.2327   3.2327   3.2327   3.2327
     4.4741   4.4741   4.4741   4.4741   6.6397   6.6397   8.5016   8.5016
     8.5016   8.5016  12.3633  12.3633  18.9873  18.9873  22.1354

     occupation numbers 
     1.0000   1.0000   1.0000   1.0000   1.0000   1.0000   1.0000   1.0000
     1.0000   1.0000   1.0000   1.0000   1.0000   1.0000   1.0000   1.0000
     1.0000   1.0000   1.0000   1.0000   1.0000   1.0000   1.0000   1.0000
     1.0000   1.0000   0.0000   0.0000   0.0000   0.0000   0.0000

          k = 0.0000 0.0962 0.0000 (  1882 PWs)   bands (ev):

  -114.5439-114.5438 -68.7445 -68.7413 -68.7394 -68.7393 -68.7388 -68.7387
    -9.1824  -8.4705   3.1148   3.1830   3.2313   3.2841   3.3554   3.3863
     4.3302   4.3441   4.5619   4.5883   4.8267   7.8402   8.0032   8.4174
     8.7609   8.8464  10.2648  14.4486  17.1099  21.0870  21.9187

     occupation numbers 
     1.0000   1.0000   1.0000   1.0000   1.0000   1.0000   1.0000   1.0000
     1.0000   1.0000   1.0000   1.0000   1.0000   1.0000   1.0000   1.0000
     1.0000   1.0000   1.0000   1.0000   1.0000   1.0000   1.0000   1.0000
     1.0001   1.0006   0.0000   0.0000   0.0000   0.0000   0.0000

          k = 0.0000 0.0962 0.0775 (  1898 PWs)   bands (ev):

  -114.5439-114.5438 -68.7445 -68.7416 -68.7394 -68.7393 -68.7388 -68.7387
    -9.1566  -8.4990   3.1000   3.1873   3.1890   3.2254   3.3552   3.3746
     4.3429   4.3551   4.5567   4.5730   5.0238   7.8711   8.0361   8.2024
     8.7383   8.8151  10.5236  14.2965  17.2366  21.1105  21.9197

     occupation numbers 
     1.0000   1.0000   1.0000   1.0000   1.0000   1.0000   1.0000   1.0000
     1.0000   1.0000   1.0000   1.0000   1.0000   1.0000   1.0000   1.0000
     1.0000   1.0000   1.0000   1.0000   1.0000   1.0000   1.0000   1.0000
     1.0000   1.0003   0.0000   0.0000   0.0000   0.0000   0.0000

          k = 0.0000 0.0962 0.1550 (  1891 PWs)   bands (ev):

  -114.5439-114.5438 -68.7441 -68.7420 -68.7393 -68.7391 -68.7389 -68.7388
    -9.0827  -8.5795   3.0352   3.0571   3.2008   3.2138   3.3305   3.3433
     4.3772   4.3855   4.5405   4.5497   5.4812   7.7326   7.9853   8.1293
     8.6411   8.7257  11.1157  13.8824  17.5988  21.0311  21.3779

     occupation numbers 
     1.0000   1.0000   1.0000   1.0000   1.0000   1.0000   1.0000   1.0000
     1.0000   1.0000   1.0000   1.0000   1.0000   1.0000   1.0000   1.0000
     1.0000   1.0000   1.0000   1.0000   1.0000   1.0000   1.0000   1.0000
     1.0000   1.0000   0.0000   0.0000   0.0000   0.0000   0.0000

          k = 0.0000 0.0962 0.2325 (  1897 PWs)   bands (ev):

  -114.5439-114.5438 -68.7437 -68.7426 -68.7392 -68.7391 -68.7390 -68.7389
    -8.9706  -8.6982   2.9452   2.9782   3.2250   3.2259   3.2925   3.3016
     4.4243   4.4277   4.5120   4.5172   6.0475   7.2090   8.1262   8.2680
     8.4854   8.5908  11.8358  13.2868  18.1783  19.9800  21.4209

     occupation numbers 
     1.0000   1.0000   1.0000   1.0000   1.0000   1.0000   1.0000   1.0000
     1.0000   1.0000   1.0000   1.0000   1.0000   1.0000   1.0000   1.0000
     1.0000   1.0000   1.0000   1.0000   1.0000   1.0000   1.0000   1.0000
     1.0000   1.0000   0.0000   0.0000   0.0000   0.0000   0.0000

          k = 0.0000 0.0962-0.3100 (  1894 PWs)   bands (ev):

  -114.5439-114.5439 -68.7432 -68.7432 -68.7391 -68.7391 -68.7389 -68.7389
    -8.8358  -8.8358   2.9297   2.9297   3.2546   3.2546   3.2598   3.2598
     4.4726   4.4726   4.4738   4.4738   6.6384   6.6384   8.3034   8.3034
     8.4301   8.4301  12.5827  12.5827  18.9755  18.9755  21.6521

     occupation numbers 
     1.0000   1.0000   1.0000   1.0000   1.0000   1.0000   1.0000   1.0000
     1.0000   1.0000   1.0000   1.0000   1.0000   1.0000   1.0000   1.0000
     1.0000   1.0000   1.0000   1.0000   1.0000   1.0000   1.0000   1.0000
     1.0000   1.0000   0.0000   0.0000   0.0000   0.0000   0.0000

          k = 0.0000 0.1925 0.0000 (  1890 PWs)   bands (ev):

  -114.5439-114.5438 -68.7443 -68.7415 -68.7398 -68.7395 -68.7393 -68.7387
    -9.0722  -8.4236   3.0106   3.2422   3.2671   3.3415   3.4771   3.4810
     4.2859   4.3451   4.5702   4.6743   4.8062   7.1797   7.7467   7.7839
     8.6194   8.7040  11.1731  15.1696  17.0993  19.7688  21.5070

     occupation numbers 
     1.0000   1.0000   1.0000   1.0000   1.0000   1.0000   1.0000   1.0000
     1.0000   1.0000   1.0000   1.0000   1.0000   1.0000   1.0000   1.0000
     1.0000   1.0000   1.0000   1.0000   1.0000   1.0000   1.0000   1.0000
     1.0000   1.0000   0.0000   0.0000   0.0000   0.0000   0.0000

          k = 0.0000 0.1925 0.0775 (  1894 PWs)   bands (ev):

  -114.5439-114.5438 -68.7442 -68.7417 -68.7397 -68.7395 -68.7393 -68.7388
    -9.0484  -8.4491   2.9927   3.2105   3.2478   3.3110   3.4470   3.4642
     4.3044   4.3557   4.5638   4.6216   5.0515   7.2133   7.6899   7.7845
     8.5768   8.6687  11.3310  14.9737  17.2404  19.8049  21.4157

     occupation numbers 
     1.0000   1.0000   1.0000   1.0000   1.0000   1.0000   1.0000   1.0000
     1.0000   1.0000   1.0000   1.0000   1.0000   1.0000   1.0000   1.0000
     1.0000   1.0000   1.0000   1.0000   1.0000   1.0000   1.0000   1.0000
     1.0000   1.0000   0.0000   0.0000   0.0000   0.0000   0.0000

          k = 0.0000 0.1925 0.1550 (  1905 PWs)   bands (ev):

  -114.5439-114.5438 -68.7441 -68.7421 -68.7397 -68.7394 -68.7393 -68.7389
    -8.9802  -8.5215   2.9435   3.0539   3.2649   3.2912   3.4013   3.4294
     4.3509   4.3848   4.5444   4.5788   5.5310   7.2520   7.5195   7.8915
     8.4268   8.5677  11.7655  14.4792  17.6070  19.8566  21.0507

     occupation numbers 
     1.0000   1.0000   1.0000   1.0000   1.0000   1.0000   1.0000   1.0000
     1.0000   1.0000   1.0000   1.0000   1.0000   1.0000   1.0000   1.0000
     1.0000   1.0000   1.0000   1.0000   1.0000   1.0000   1.0000   1.0000
     1.0000   1.0000   0.0000   0.0000   0.0000   0.0000   0.0000

          k = 0.0000 0.1925 0.2325 (  1907 PWs)   bands (ev):

  -114.5439-114.5438 -68.7436 -68.7426 -68.7396 -68.7394 -68.7392 -68.7390
    -8.8771  -8.6288   2.8884   2.9265   3.2944   3.2953   3.3573   3.3828
     4.4121   4.4260   4.5126   4.5325   6.0743   7.0033   7.6222   8.0497
     8.1743   8.4154  12.3864  13.8228  18.1459  19.5660  20.7000

     occupation numbers 
     1.0000   1.0000   1.0000   1.0000   1.0000   1.0000   1.0000   1.0000
     1.0000   1.0000   1.0000   1.0000   1.0000   1.0000   1.0000   1.0000
     1.0000   1.0000   1.0000   1.0000   1.0000   1.0000   1.0000   1.0000
     1.0000   1.0000   0.0000   0.0000   0.0000   0.0000   0.0000

          k = 0.0000 0.1925-0.3100 (  1918 PWs)   bands (ev):

  -114.5439-114.5439 -68.7432 -68.7432 -68.7395 -68.7395 -68.7391 -68.7391
    -8.7538  -8.7538   2.8729   2.8729   3.3194   3.3194   3.3350   3.3350
     4.4712   4.4712   4.4756   4.4756   6.5828   6.5828   7.8803   7.8803
     8.2338   8.2338  13.0993  13.0993  18.8375  18.8376  20.8698

     occupation numbers 
     1.0000   1.0000   1.0000   1.0000   1.0000   1.0000   1.0000   1.0000
     1.0000   1.0000   1.0000   1.0000   1.0000   1.0000   1.0000   1.0000
     1.0000   1.0000   1.0000   1.0000   1.0000   1.0000   1.0000   1.0000
     1.0000   1.0000   0.0000   0.0000   0.0000   0.0000   0.0000

          k = 0.0000 0.2887 0.0000 (  1908 PWs)   bands (ev):

  -114.5439-114.5438 -68.7441 -68.7417 -68.7404 -68.7399 -68.7397 -68.7389
    -8.9124  -8.3643   2.9057   3.2481   3.3150   3.4369   3.6149   3.7232
     4.2335   4.3679   4.5800   4.7317   4.8655   6.3910   7.1795   7.3930
     8.3814   8.4994  12.1654  15.9678  17.0578  18.5768  20.5525

     occupation numbers 
     1.0000   1.0000   1.0000   1.0000   1.0000   1.0000   1.0000   1.0000
     1.0000   1.0000   1.0000   1.0000   1.0000   1.0000   1.0000   1.0000
     1.0000   1.0000   1.0000   1.0000   1.0000   1.0000   1.0000   1.0000
     1.0000   1.0000   0.0000   0.0000   0.0000   0.0000   0.0000

          k = 0.0000 0.2887 0.0775 (  1905 PWs)   bands (ev):

  -114.5439-114.5438 -68.7441 -68.7419 -68.7403 -68.7399 -68.7396 -68.7389
    -8.8917  -8.3852   2.8881   3.1901   3.3232   3.4215   3.5994   3.6395
     4.2631   4.3767   4.5724   4.6706   5.1243   6.4398   7.1194   7.4378
     8.3623   8.4591  12.2593  15.6929  17.2319  18.6198  20.5128

     occupation numbers 
     1.0000   1.0000   1.0000   1.0000   1.0000   1.0000   1.0000   1.0000
     1.0000   1.0000   1.0000   1.0000   1.0000   1.0000   1.0000   1.0000
     1.0000   1.0000   1.0000   1.0000   1.0000   1.0000   1.0000   1.0000
     1.0000   1.0000   0.0000   0.0000   0.0000   0.0000   0.0000

          k = 0.0000 0.2887 0.1550 (  1906 PWs)   bands (ev):

  -114.5439-114.5438 -68.7438 -68.7422 -68.7402 -68.7399 -68.7396 -68.7390
    -8.8328  -8.4449   2.8445   3.0374   3.3475   3.3990   3.5340   3.5574
     4.3274   4.4011   4.5505   4.6176   5.5770   6.5587   7.0176   7.5637
     8.2488   8.3438  12.5527  15.1010  17.5749  18.7084  20.3615

     occupation numbers 
     1.0000   1.0000   1.0000   1.0000   1.0000   1.0000   1.0000   1.0000
     1.0000   1.0000   1.0000   1.0000   1.0000   1.0000   1.0000   1.0000
     1.0000   1.0000   1.0000   1.0000   1.0000   1.0000   1.0000   1.0000
     1.0000   1.0000   0.0000   0.0000   0.0000   0.0000   0.0000

          k = 0.0000 0.2887 0.2325 (  1913 PWs)   bands (ev):

  -114.5438-114.5438 -68.7436 -68.7427 -68.7401 -68.7399 -68.7394 -68.7391
    -8.7442  -8.5342   2.8049   2.8889   3.3873   3.3972   3.4659   3.5002
     4.4059   4.4368   4.5175   4.5578   6.0006   6.5367   7.1602   7.7482
     7.9738   8.1695  13.0445  14.3985  17.9794  18.6856  20.2565

     occupation numbers 
     1.0000   1.0000   1.0000   1.0000   1.0000   1.0000   1.0000   1.0000
     1.0000   1.0000   1.0000   1.0000   1.0000   1.0000   1.0000   1.0000
     1.0000   1.0000   1.0000   1.0000   1.0000   1.0000   1.0000   1.0000
     1.0000   1.0000   0.0000   0.0000   0.0000   0.0000   0.0000

          k = 0.0000 0.2887-0.3100 (  1910 PWs)   bands (ev):

  -114.5438-114.5438 -68.7432 -68.7432 -68.7400 -68.7400 -68.7393 -68.7393
    -8.6393  -8.6393   2.8102   2.8102   3.4205   3.4205   3.4402   3.4402
     4.4777   4.4777   4.4858   4.4858   6.3178   6.3178   7.5661   7.5661
     7.9610   7.9610  13.6855  13.6855  18.3977  18.3977  20.4844

     occupation numbers 
     1.0000   1.0000   1.0000   1.0000   1.0000   1.0000   1.0000   1.0000
     1.0000   1.0000   1.0000   1.0000   1.0000   1.0000   1.0000   1.0000
     1.0000   1.0000   1.0000   1.0000   1.0000   1.0000   1.0000   1.0000
     1.0000   1.0000   0.0000   0.0000   0.0000   0.0000   0.0000

          k = 0.0000 0.3849 0.0000 (  1906 PWs)   bands (ev):

  -114.5438-114.5437 -68.7439 -68.7419 -68.7409 -68.7405 -68.7398 -68.7390
    -8.7362  -8.3154   2.8577   3.2118   3.3745   3.5750   3.7738   3.8930
     4.2553   4.4216   4.5909   4.7352   5.0123   5.7160   6.6173   7.0242
     8.0657   8.2830  13.1778  16.4519  16.8721  17.7484  19.9473

     occupation numbers 
     1.0000   1.0000   1.0000   1.0000   1.0000   1.0000   1.0000   1.0000
     1.0000   1.0000   1.0000   1.0000   1.0000   1.0000   1.0000   1.0000
     1.0000   1.0000   1.0000   1.0000   1.0000   1.0000   1.0000   1.0000
     1.0000   1.0000   0.0000   0.0000   0.0000   0.0000   0.0000

          k = 0.0000 0.3849 0.0775 (  1915 PWs)   bands (ev):

  -114.5438-114.5438 -68.7438 -68.7421 -68.7409 -68.7405 -68.7398 -68.7391
    -8.7197  -8.3308   2.8385   3.1543   3.3861   3.5584   3.7540   3.8036
     4.2794   4.4273   4.5827   4.7101   5.1819   5.8001   6.5889   7.0771
     8.0806   8.2380  13.2135  16.0807  17.1368  17.7778  19.9330

     occupation numbers 
     1.0000   1.0000   1.0000   1.0000   1.0000   1.0000   1.0000   1.0000
     1.0000   1.0000   1.0000   1.0000   1.0000   1.0000   1.0000   1.0000
     1.0000   1.0000   1.0000   1.0000   1.0000   1.0000   1.0000   1.0000
     1.0000   1.0000   0.0000   0.0000   0.0000   0.0000   0.0000

          k = 0.0000 0.3849 0.1550 (  1919 PWs)   bands (ev):

  -114.5438-114.5438 -68.7437 -68.7425 -68.7408 -68.7404 -68.7397 -68.7392
    -8.6729  -8.3749   2.7933   3.0076   3.4203   3.5301   3.6776   3.7000
     4.3441   4.4437   4.5609   4.6594   5.4451   5.9811   6.6332   7.2244
     8.0533   8.1090  13.3586  15.4749  17.4486  17.8585  19.8896

     occupation numbers 
     1.0000   1.0000   1.0000   1.0000   1.0000   1.0000   1.0000   1.0000
     1.0000   1.0000   1.0000   1.0000   1.0000   1.0000   1.0000   1.0000
     1.0000   1.0000   1.0000   1.0000   1.0000   1.0000   1.0000   1.0000
     1.0000   1.0000   0.0000   0.0000   0.0000   0.0000   0.0000

          k = 0.0000 0.3849 0.2325 (  1915 PWs)   bands (ev):

  -114.5438-114.5438 -68.7435 -68.7428 -68.7406 -68.7404 -68.7396 -68.7393
    -8.6032  -8.4418   2.7563   2.8567   3.4752   3.5223   3.5947   3.6255
     4.4275   4.4686   4.5312   4.5923   5.6522   5.9731   7.0002   7.4370
     7.8656   7.9137  13.6798  14.8154  17.6871  17.9194  19.9776

     occupation numbers 
     1.0000   1.0000   1.0000   1.0000   1.0000   1.0000   1.0000   1.0000
     1.0000   1.0000   1.0000   1.0000   1.0000   1.0000   1.0000   1.0000
     1.0000   1.0000   1.0000   1.0000   1.0000   1.0000   1.0000   1.0000
     1.0000   1.0000   0.0000   0.0000   0.0000   0.0000   0.0000

          k = 0.0000 0.3849-0.3100 (  1906 PWs)   bands (ev):

  -114.5438-114.5438 -68.7432 -68.7432 -68.7404 -68.7404 -68.7394 -68.7394
    -8.5220  -8.5220   2.7691   2.7691   3.5443   3.5443   3.5464   3.5464
     4.4990   4.4990   4.5132   4.5132   5.8298   5.8298   7.4861   7.4861
     7.6789   7.6789  14.1868  14.1868  17.8563  17.8563  20.3764

     occupation numbers 
     1.0000   1.0000   1.0000   1.0000   1.0000   1.0000   1.0000   1.0000
     1.0000   1.0000   1.0000   1.0000   1.0000   1.0000   1.0000   1.0000
     1.0000   1.0000   1.0000   1.0000   1.0000   1.0000   1.0000   1.0000
     1.0000   1.0000   0.0000   0.0000   0.0000   0.0000   0.0000

          k = 0.0000 0.4811 0.0000 (  1918 PWs)   bands (ev):

  -114.5438-114.5437 -68.7436 -68.7422 -68.7413 -68.7409 -68.7400 -68.7392
    -8.5871  -8.2959   2.8889   3.1668   3.4078   3.7216   3.8654   3.9066
     4.3552   4.4877   4.6019   4.8010   4.9686   5.4581   6.1866   6.7340
     7.7486   8.1160  14.1304  16.2798  16.5236  17.4894  19.6277

     occupation numbers 
     1.0000   1.0000   1.0000   1.0000   1.0000   1.0000   1.0000   1.0000
     1.0000   1.0000   1.0000   1.0000   1.0000   1.0000   1.0000   1.0000
     1.0000   1.0000   1.0000   1.0000   1.0000   1.0000   1.0000   1.0000
     1.0000   1.0000   0.0000   0.0000   0.0000   0.0000   0.0000

          k = 0.0000 0.4811 0.0775 (  1913 PWs)   bands (ev):

  -114.5438-114.5437 -68.7436 -68.7423 -68.7412 -68.7409 -68.7399 -68.7392
    -8.5750  -8.3058   2.8645   3.1084   3.4224   3.7010   3.8262   3.8819
     4.3768   4.4904   4.5936   4.7672   5.0118   5.5241   6.2659   6.7946
     7.7923   8.0675  14.0954  15.9716  16.7906  17.5116  19.5920

     occupation numbers 
     1.0000   1.0000   1.0000   1.0000   1.0000   1.0000   1.0000   1.0000
     1.0000   1.0000   1.0000   1.0000   1.0000   1.0000   1.0000   1.0000
     1.0000   1.0000   1.0000   1.0000   1.0000   1.0000   1.0000   1.0000
     1.0000   1.0000   0.0000   0.0000   0.0000   0.0000   0.0000

          k = 0.0000 0.4811 0.1550 (  1915 PWs)   bands (ev):

  -114.5438-114.5438 -68.7435 -68.7427 -68.7410 -68.7407 -68.7398 -68.7393
    -8.5410  -8.3346   2.8067   2.9687   3.4652   3.6657   3.7575   3.8144
     4.4320   4.4984   4.5737   4.7052   5.1077   5.5475   6.5833   6.9613
     7.8485   7.9286  14.0659  15.5122  17.0970  17.5558  19.5733

     occupation numbers 
     1.0000   1.0000   1.0000   1.0000   1.0000   1.0000   1.0000   1.0000
     1.0000   1.0000   1.0000   1.0000   1.0000   1.0000   1.0000   1.0000
     1.0000   1.0000   1.0000   1.0000   1.0000   1.0000   1.0000   1.0000
     1.0000   1.0000   0.0000   0.0000   0.0000   0.0000   0.0000

          k = 0.0000 0.4811 0.2325 (  1911 PWs)   bands (ev):

  -114.5438-114.5438 -68.7434 -68.7430 -68.7409 -68.7407 -68.7397 -68.7394
    -8.4911  -8.3792   2.7556   2.8310   3.5337   3.6506   3.7003   3.7213
     4.5015   4.5115   4.5506   4.6400   5.2244   5.4660   7.0575   7.1978
     7.7178   7.7757  14.1842  14.9980  17.3291  17.5610  19.7706

     occupation numbers 
     1.0000   1.0000   1.0000   1.0000   1.0000   1.0000   1.0000   1.0000
     1.0000   1.0000   1.0000   1.0000   1.0000   1.0000   1.0000   1.0000
     1.0000   1.0000   1.0000   1.0000   1.0000   1.0000   1.0000   1.0000
     1.0000   1.0000   0.0000   0.0000   0.0000   0.0000   0.0000

          k = 0.0000 0.4811-0.3100 (  1914 PWs)   bands (ev):

  -114.5438-114.5438 -68.7432 -68.7432 -68.7407 -68.7407 -68.7396 -68.7396
    -8.4341  -8.4341   2.7557   2.7557   3.6225   3.6225   3.6632   3.6632
     4.5292   4.5292   4.5723   4.5723   5.3481   5.3481   7.4629   7.4629
     7.4980   7.4980  14.5154  14.5154  17.4835  17.4835  20.2808

     occupation numbers 
     1.0000   1.0000   1.0000   1.0000   1.0000   1.0000   1.0000   1.0000
     1.0000   1.0000   1.0000   1.0000   1.0000   1.0000   1.0000   1.0000
     1.0000   1.0000   1.0000   1.0000   1.0000   1.0000   1.0000   1.0000
     1.0000   1.0000   0.0000   0.0000   0.0000   0.0000   0.0000

          k = 0.0000-0.5774 0.0000 (  1906 PWs)   bands (ev):

  -114.5438-114.5437 -68.7434 -68.7423 -68.7415 -68.7410 -68.7400 -68.7392
    -8.5228  -8.2977   2.9347   3.1310   3.4178   3.8061   3.8176   3.9590
     4.3810   4.5200   4.6069   4.6808   5.1523   5.3287   6.0541   6.6207
     7.5998   8.0527  14.7036  15.7859  16.4971  17.4537  19.5130

     occupation numbers 
     1.0000   1.0000   1.0000   1.0000   1.0000   1.0000   1.0000   1.0000
     1.0000   1.0000   1.0000   1.0000   1.0000   1.0000   1.0000   1.0000
     1.0000   1.0000   1.0000   1.0000   1.0000   1.0000   1.0000   1.0000
     1.0000   1.0000   0.0000   0.0000   0.0000   0.0000   0.0000

          k = 0.0000-0.5774 0.0775 (  1908 PWs)   bands (ev):

  -114.5438-114.5437 -68.7434 -68.7424 -68.7413 -68.7409 -68.7400 -68.7392
    -8.5130  -8.3049   2.9065   3.0717   3.4334   3.7799   3.8027   3.9320
     4.4222   4.5215   4.5984   4.6807   5.1235   5.3020   6.2272   6.6849
     7.6543   8.0029  14.5892  15.6923  16.6313  17.4812  19.4649

     occupation numbers 
     1.0000   1.0000   1.0000   1.0000   1.0000   1.0000   1.0000   1.0000
     1.0000   1.0000   1.0000   1.0000   1.0000   1.0000   1.0000   1.0000
     1.0000   1.0000   1.0000   1.0000   1.0000   1.0000   1.0000   1.0000
     1.0000   1.0000   0.0000   0.0000   0.0000   0.0000   0.0000

          k = 0.0000-0.5774 0.1550 (  1924 PWs)   bands (ev):

  -114.5438-114.5438 -68.7435 -68.7427 -68.7412 -68.7409 -68.7399 -68.7393
    -8.4856  -8.3261   2.8383   2.9372   3.4796   3.7399   3.7690   3.8583
     4.5032   4.5259   4.5795   4.6772   5.0879   5.2396   6.6359   6.8601
     7.7463   7.8603  14.4118  15.4197  16.9017  17.5205  19.4445

     occupation numbers 
     1.0000   1.0000   1.0000   1.0000   1.0000   1.0000   1.0000   1.0000
     1.0000   1.0000   1.0000   1.0000   1.0000   1.0000   1.0000   1.0000
     1.0000   1.0000   1.0000   1.0000   1.0000   1.0000   1.0000   1.0000
     1.0000   1.0000   0.0000   0.0000   0.0000   0.0000   0.0000

          k = 0.0000-0.5774 0.2325 (  1924 PWs)   bands (ev):

  -114.5438-114.5438 -68.7434 -68.7430 -68.7411 -68.7409 -68.7398 -68.7395
    -8.4460  -8.3595   2.7723   2.8130   3.5535   3.7183   3.7366   3.7568
     4.5335   4.5601   4.5783   4.6635   5.0851   5.1713   7.1066   7.1101
     7.6437   7.7294  14.3989  15.0219  17.1581  17.4862  19.6759

     occupation numbers 
     1.0000   1.0000   1.0000   1.0000   1.0000   1.0000   1.0000   1.0000
     1.0000   1.0000   1.0000   1.0000   1.0000   1.0000   1.0000   1.0000
     1.0000   1.0000   1.0000   1.0000   1.0000   1.0000   1.0000   1.0000
     1.0000   1.0000   0.0000   0.0000   0.0000   0.0000   0.0000

          k = 0.0000-0.5774-0.3100 (  1924 PWs)   bands (ev):

  -114.5438-114.5438 -68.7432 -68.7432 -68.7409 -68.7409 -68.7396 -68.7396
    -8.4015  -8.4015   2.7549   2.7549   3.6495   3.6495   3.7179   3.7179
     4.5446   4.5446   4.6322   4.6322   5.1158   5.1158   7.3810   7.3810
     7.5096   7.5096  14.6288  14.6288  17.3571  17.3571  20.2264

     occupation numbers 
     1.0000   1.0000   1.0000   1.0000   1.0000   1.0000   1.0000   1.0000
     1.0000   1.0000   1.0000   1.0000   1.0000   1.0000   1.0000   1.0000
     1.0000   1.0000   1.0000   1.0000   1.0000   1.0000   1.0000   1.0000
     1.0000   1.0000   0.0000   0.0000   0.0000   0.0000   0.0000

          k = 0.0833 0.1443 0.0000 (  1883 PWs)   bands (ev):

  -114.5439-114.5438 -68.7444 -68.7414 -68.7396 -68.7394 -68.7390 -68.7387
    -9.1077  -8.4383   3.0566   3.1947   3.2694   3.3307   3.4287   3.4510
     4.3031   4.3402   4.5670   4.6481   4.8115   7.4419   7.6881   8.0369
     8.6684   8.7319  10.9241  14.9578  17.1066  20.1723  21.5810

     occupation numbers 
     1.0000   1.0000   1.0000   1.0000   1.0000   1.0000   1.0000   1.0000
     1.0000   1.0000   1.0000   1.0000   1.0000   1.0000   1.0000   1.0000
     1.0000   1.0000   1.0000   1.0000   1.0000   1.0000   1.0000   1.0000
     1.0000   1.0000   0.0000   0.0000   0.0000   0.0000   0.0000

          k = 0.0833 0.1443 0.0775 (  1892 PWs)   bands (ev):

  -114.5439-114.5438 -68.7443 -68.7417 -68.7396 -68.7394 -68.7391 -68.7387
    -9.0833  -8.4647   3.0388   3.1700   3.2623   3.2735   3.4093   3.4386
     4.3186   4.3520   4.5610   4.6080   5.0408   7.4811   7.6670   7.9712
     8.6278   8.6974  11.1029  14.7769  17.2424  20.2031  21.5808

     occupation numbers 
     1.0000   1.0000   1.0000   1.0000   1.0000   1.0000   1.0000   1.0000
     1.0000   1.0000   1.0000   1.0000   1.0000   1.0000   1.0000   1.0000
     1.0000   1.0000   1.0000   1.0000   1.0000   1.0000   1.0000   1.0000
     1.0000   1.0000   0.0000   0.0000   0.0000   0.0000   0.0000

          k = 0.0833 0.1443 0.1550 (  1898 PWs)   bands (ev):

  -114.5439-114.5438 -68.7441 -68.7420 -68.7396 -68.7393 -68.7391 -68.7388
    -9.0132  -8.5397   2.9873   3.0412   3.2516   3.2549   3.3753   3.4056
     4.3601   4.3827   4.5426   4.5705   5.5157   7.4677   7.5958   7.9707
     8.4907   8.5989  11.5765  14.3079  17.6090  20.2304  21.2973

     occupation numbers 
     1.0000   1.0000   1.0000   1.0000   1.0000   1.0000   1.0000   1.0000
     1.0000   1.0000   1.0000   1.0000   1.0000   1.0000   1.0000   1.0000
     1.0000   1.0000   1.0000   1.0000   1.0000   1.0000   1.0000   1.0000
     1.0000   1.0000   0.0000   0.0000   0.0000   0.0000   0.0000

          k = 0.0833 0.1443 0.2325 (  1907 PWs)   bands (ev):

  -114.5439-114.5438 -68.7437 -68.7426 -68.7395 -68.7393 -68.7391 -68.7389
    -8.9070  -8.6508   2.9244   2.9276   3.2627   3.2701   3.3377   3.3624
     4.4164   4.4250   4.5116   4.5282   6.0705   7.0882   7.7779   8.0941
     8.2747   8.4513  12.2260  13.6692  18.1667  19.7637  20.8779

     occupation numbers 
     1.0000   1.0000   1.0000   1.0000   1.0000   1.0000   1.0000   1.0000
     1.0000   1.0000   1.0000   1.0000   1.0000   1.0000   1.0000   1.0000
     1.0000   1.0000   1.0000   1.0000   1.0000   1.0000   1.0000   1.0000
     1.0000   1.0000   0.0000   0.0000   0.0000   0.0000   0.0000

          k = 0.0833 0.1443-0.3100 (  1900 PWs)   bands (ev):

  -114.5439-114.5439 -68.7431 -68.7431 -68.7394 -68.7394 -68.7390 -68.7390
    -8.7799  -8.7799   2.8923   2.8923   3.2813   3.2813   3.3254   3.3254
     4.4703   4.4703   4.4759   4.4759   6.6121   6.6121   8.0089   8.0089
     8.2792   8.2792  12.9503  12.9503  18.9068  18.9068  21.0573

     occupation numbers 
     1.0000   1.0000   1.0000   1.0000   1.0000   1.0000   1.0000   1.0000
     1.0000   1.0000   1.0000   1.0000   1.0000   1.0000   1.0000   1.0000
     1.0000   1.0000   1.0000   1.0000   1.0000   1.0000   1.0000   1.0000
     1.0000   1.0000   0.0000   0.0000   0.0000   0.0000   0.0000

          k = 0.0833 0.2406 0.0000 (  1890 PWs)   bands (ev):

  -114.5439-114.5437 -68.7442 -68.7416 -68.7400 -68.7397 -68.7394 -68.7389
    -8.9725  -8.3851   2.9690   3.2178   3.3063   3.3814   3.5699   3.6348
     4.2587   4.3479   4.5751   4.7327   4.8236   6.7709   7.2023   7.6104
     8.4839   8.5273  11.8332  15.7290  17.1060  19.0634  20.7651

     occupation numbers 
     1.0000   1.0000   1.0000   1.0000   1.0000   1.0000   1.0000   1.0000
     1.0000   1.0000   1.0000   1.0000   1.0000   1.0000   1.0000   1.0000
     1.0000   1.0000   1.0000   1.0000   1.0000   1.0000   1.0000   1.0000
     1.0000   1.0000   0.0000   0.0000   0.0000   0.0000   0.0000

          k = 0.0833 0.2406 0.0775 (  1898 PWs)   bands (ev):

  -114.5439-114.5438 -68.7441 -68.7418 -68.7400 -68.7397 -68.7394 -68.7389
    -8.9506  -8.4079   2.9501   3.1765   3.3001   3.3625   3.5535   3.5677
     4.2809   4.3611   4.5679   4.6586   5.0951   6.8148   7.1817   7.6016
     8.4546   8.4894  11.9491  15.4868  17.2611  19.1005  20.7873

     occupation numbers 
     1.0000   1.0000   1.0000   1.0000   1.0000   1.0000   1.0000   1.0000
     1.0000   1.0000   1.0000   1.0000   1.0000   1.0000   1.0000   1.0000
     1.0000   1.0000   1.0000   1.0000   1.0000   1.0000   1.0000   1.0000
     1.0000   1.0000   0.0000   0.0000   0.0000   0.0000   0.0000

          k = 0.0833 0.2406 0.1550 (  1903 PWs)   bands (ev):

  -114.5439-114.5438 -68.7439 -68.7422 -68.7400 -68.7397 -68.7394 -68.7390
    -8.8880  -8.4724   2.9011   3.0392   3.3054   3.3415   3.4808   3.5195
     4.3363   4.3909   4.5469   4.6063   5.5702   6.9003   7.1264   7.6528
     8.3230   8.3782  12.2940  14.9264  17.6129  19.1689  20.7100

     occupation numbers 
     1.0000   1.0000   1.0000   1.0000   1.0000   1.0000   1.0000   1.0000
     1.0000   1.0000   1.0000   1.0000   1.0000   1.0000   1.0000   1.0000
     1.0000   1.0000   1.0000   1.0000   1.0000   1.0000   1.0000   1.0000
     1.0000   1.0000   0.0000   0.0000   0.0000   0.0000   0.0000

          k = 0.0833 0.2406 0.2325 (  1910 PWs)   bands (ev):

  -114.5439-114.5438 -68.7436 -68.7426 -68.7399 -68.7397 -68.7393 -68.7391
    -8.7937  -8.5687   2.8509   2.9044   3.3228   3.3432   3.4329   3.4708
     4.4082   4.4302   4.5143   4.5505   6.0582   6.7576   7.3119   7.7953
     8.0558   8.2064  12.8367  14.2332  18.0810  19.0734  20.4589

     occupation numbers 
     1.0000   1.0000   1.0000   1.0000   1.0000   1.0000   1.0000   1.0000
     1.0000   1.0000   1.0000   1.0000   1.0000   1.0000   1.0000   1.0000
     1.0000   1.0000   1.0000   1.0000   1.0000   1.0000   1.0000   1.0000
     1.0000   1.0000   0.0000   0.0000   0.0000   0.0000   0.0000

          k = 0.0833 0.2406-0.3100 (  1918 PWs)   bands (ev):

  -114.5438-114.5438 -68.7432 -68.7432 -68.7399 -68.7399 -68.7392 -68.7392
    -8.6816  -8.6816   2.8415   2.8415   3.3414   3.3414   3.4305   3.4305
     4.4716   4.4716   4.4848   4.4848   6.4593   6.4593   7.6664   7.6664
     8.0089   8.0089  13.5096  13.5096  18.6264  18.6264  20.5133

     occupation numbers 
     1.0000   1.0000   1.0000   1.0000   1.0000   1.0000   1.0000   1.0000
     1.0000   1.0000   1.0000   1.0000   1.0000   1.0000   1.0000   1.0000
     1.0000   1.0000   1.0000   1.0000   1.0000   1.0000   1.0000   1.0000
     1.0000   1.0000   0.0000   0.0000   0.0000   0.0000   0.0000

          k = 0.0833 0.3368 0.0000 (  1911 PWs)   bands (ev):

  -114.5439-114.5437 -68.7440 -68.7419 -68.7406 -68.7403 -68.7398 -68.7390
    -8.8038  -8.3313   2.9049   3.2242   3.3413   3.5017   3.7199   3.8457
     4.2283   4.3852   4.5858   4.7370   4.9706   6.0475   6.7619   7.1059
     8.2073   8.2902  12.8350  16.3613  17.1096  18.0908  20.1324

     occupation numbers 
     1.0000   1.0000   1.0000   1.0000   1.0000   1.0000   1.0000   1.0000
     1.0000   1.0000   1.0000   1.0000   1.0000   1.0000   1.0000   1.0000
     1.0000   1.0000   1.0000   1.0000   1.0000   1.0000   1.0000   1.0000
     1.0000   1.0000   0.0000   0.0000   0.0000   0.0000   0.0000

          k = 0.0833 0.3368 0.0775 (  1905 PWs)   bands (ev):

  -114.5439-114.5437 -68.7439 -68.7420 -68.7406 -68.7402 -68.7397 -68.7391
    -8.7856  -8.3489   2.8855   3.1731   3.3474   3.4871   3.7010   3.7439
     4.2580   4.4008   4.5781   4.7015   5.1838   6.1122   6.7381   7.1348
     8.2026   8.2507  12.8981  16.0535  17.2853  18.1334  20.1605

     occupation numbers 
     1.0000   1.0000   1.0000   1.0000   1.0000   1.0000   1.0000   1.0000
     1.0000   1.0000   1.0000   1.0000   1.0000   1.0000   1.0000   1.0000
     1.0000   1.0000   1.0000   1.0000   1.0000   1.0000   1.0000   1.0000
     1.0000   1.0000   0.0000   0.0000   0.0000   0.0000   0.0000

          k = 0.0833 0.3368 0.1550 (  1905 PWs)   bands (ev):

  -114.5438-114.5438 -68.7437 -68.7423 -68.7405 -68.7402 -68.7396 -68.7391
    -8.7338  -8.3993   2.8384   3.0326   3.3699   3.4619   3.6106   3.6565
     4.3267   4.4266   4.5570   4.6491   5.5516   6.2633   6.7321   7.2504
     8.0957   8.1662  13.1122  15.4454  17.5681  18.2302  20.1032

     occupation numbers 
     1.0000   1.0000   1.0000   1.0000   1.0000   1.0000   1.0000   1.0000
     1.0000   1.0000   1.0000   1.0000   1.0000   1.0000   1.0000   1.0000
     1.0000   1.0000   1.0000   1.0000   1.0000   1.0000   1.0000   1.0000
     1.0000   1.0000   0.0000   0.0000   0.0000   0.0000   0.0000

          k = 0.0833 0.3368 0.2325 (  1915 PWs)   bands (ev):

  -114.5438-114.5438 -68.7435 -68.7428 -68.7404 -68.7402 -68.7395 -68.7393
    -8.6564  -8.4752   2.7971   2.8856   3.4045   3.4521   3.5420   3.5940
     4.4121   4.4568   4.5275   4.5830   5.8486   6.2424   7.0293   7.4433
     7.8813   7.9660  13.5122  14.7551  17.8610  18.2699  20.0366

     occupation numbers 
     1.0000   1.0000   1.0000   1.0000   1.0000   1.0000   1.0000   1.0000
     1.0000   1.0000   1.0000   1.0000   1.0000   1.0000   1.0000   1.0000
     1.0000   1.0000   1.0000   1.0000   1.0000   1.0000   1.0000   1.0000
     1.0000   1.0000   0.0000   0.0000   0.0000   0.0000   0.0000

          k = 0.0833 0.3368-0.3100 (  1914 PWs)   bands (ev):

  -114.5438-114.5438 -68.7432 -68.7432 -68.7403 -68.7403 -68.7394 -68.7394
    -8.5655  -8.5655   2.8038   2.8038   3.4379   3.4379   3.5412   3.5412
     4.4833   4.4833   4.5103   4.5103   6.0720   6.0720   7.4801   7.4801
     7.7181   7.7181  14.0823  14.0823  18.1291  18.1291  20.2389

     occupation numbers 
     1.0000   1.0000   1.0000   1.0000   1.0000   1.0000   1.0000   1.0000
     1.0000   1.0000   1.0000   1.0000   1.0000   1.0000   1.0000   1.0000
     1.0000   1.0000   1.0000   1.0000   1.0000   1.0000   1.0000   1.0000
     1.0000   1.0000   0.0000   0.0000   0.0000   0.0000   0.0000

          k = 0.0833 0.4330 0.0000 (  1921 PWs)   bands (ev):

  -114.5438-114.5438 -68.7437 -68.7421 -68.7411 -68.7408 -68.7400 -68.7392
    -8.6389  -8.2989   2.9074   3.2165   3.3815   3.6382   3.8591   3.9165
     4.3006   4.4318   4.6000   4.8030   5.0038   5.5850   6.3491   6.6865
     7.8677   8.0810  13.8400  16.5428  16.8251  17.5621  19.7775

     occupation numbers 
     1.0000   1.0000   1.0000   1.0000   1.0000   1.0000   1.0000   1.0000
     1.0000   1.0000   1.0000   1.0000   1.0000   1.0000   1.0000   1.0000
     1.0000   1.0000   1.0000   1.0000   1.0000   1.0000   1.0000   1.0000
     1.0000   1.0000   0.0000   0.0000   0.0000   0.0000   0.0000

          k = 0.0833 0.4330 0.0775 (  1917 PWs)   bands (ev):

  -114.5438-114.5438 -68.7437 -68.7422 -68.7411 -68.7407 -68.7399 -68.7392
    -8.6251  -8.3108   2.8852   3.1605   3.3930   3.6213   3.8290   3.8507
     4.3113   4.4542   4.5927   4.7674   5.1025   5.6816   6.3641   6.7480
     7.8949   8.0365  13.8466  16.2030  17.0774  17.5850  19.7335

     occupation numbers 
     1.0000   1.0000   1.0000   1.0000   1.0000   1.0000   1.0000   1.0000
     1.0000   1.0000   1.0000   1.0000   1.0000   1.0000   1.0000   1.0000
     1.0000   1.0000   1.0000   1.0000   1.0000   1.0000   1.0000   1.0000
     1.0000   1.0000   0.0000   0.0000   0.0000   0.0000   0.0000

          k = 0.0833 0.4330 0.1550 (  1914 PWs)   bands (ev):

  -114.5438-114.5438 -68.7436 -68.7426 -68.7409 -68.7406 -68.7398 -68.7393
    -8.5862  -8.3453   2.8323   3.0195   3.4279   3.5908   3.7284   3.7777
     4.3670   4.4795   4.5754   4.7046   5.2642   5.7828   6.5613   6.9198
     7.8495   7.9653  13.9135  15.6737  17.3523  17.6473  19.6430

     occupation numbers 
     1.0000   1.0000   1.0000   1.0000   1.0000   1.0000   1.0000   1.0000
     1.0000   1.0000   1.0000   1.0000   1.0000   1.0000   1.0000   1.0000
     1.0000   1.0000   1.0000   1.0000   1.0000   1.0000   1.0000   1.0000
     1.0000   1.0000   0.0000   0.0000   0.0000   0.0000   0.0000

          k = 0.0833 0.4330 0.2325 (  1915 PWs)   bands (ev):

  -114.5438-114.5438 -68.7434 -68.7429 -68.7407 -68.7406 -68.7397 -68.7394
    -8.5288  -8.3983   2.7866   2.8746   3.4837   3.5732   3.6559   3.6978
     4.4439   4.4988   4.5574   4.6334   5.4222   5.7125   6.9776   7.1822
     7.6437   7.8490  14.1332  15.0917  17.5462  17.7012  19.6961

     occupation numbers 
     1.0000   1.0000   1.0000   1.0000   1.0000   1.0000   1.0000   1.0000
     1.0000   1.0000   1.0000   1.0000   1.0000   1.0000   1.0000   1.0000
     1.0000   1.0000   1.0000   1.0000   1.0000   1.0000   1.0000   1.0000
     1.0000   1.0000   0.0000   0.0000   0.0000   0.0000   0.0000

          k = 0.0833 0.4330-0.3100 (  1918 PWs)   bands (ev):

  -114.5438-114.5438 -68.7432 -68.7432 -68.7406 -68.7406 -68.7396 -68.7396
    -8.4627  -8.4627   2.7924   2.7924   3.5453   3.5453   3.6406   3.6406
     4.5004   4.5004   4.5680   4.5680   5.5753   5.5753   7.3290   7.3290
     7.5742   7.5742  14.5444  14.5444  17.6669  17.6669  20.0371

     occupation numbers 
     1.0000   1.0000   1.0000   1.0000   1.0000   1.0000   1.0000   1.0000
     1.0000   1.0000   1.0000   1.0000   1.0000   1.0000   1.0000   1.0000
     1.0000   1.0000   1.0000   1.0000   1.0000   1.0000   1.0000   1.0000
     1.0000   1.0000   0.0000   0.0000   0.0000   0.0000   0.0000

          k = 0.0833 0.5292 0.0000 (  1915 PWs)   bands (ev):

  -114.5438-114.5438 -68.7435 -68.7423 -68.7413 -68.7410 -68.7401 -68.7392
    -8.5255  -8.2962   2.9558   3.2069   3.4033   3.7471   3.8508   3.9709
     4.3681   4.4792   4.6144   4.7215   5.0772   5.4369   6.0465   6.5337
     7.5827   7.9569  14.7074  16.1398  16.5218  17.4746  19.5539

     occupation numbers 
     1.0000   1.0000   1.0000   1.0000   1.0000   1.0000   1.0000   1.0000
     1.0000   1.0000   1.0000   1.0000   1.0000   1.0000   1.0000   1.0000
     1.0000   1.0000   1.0000   1.0000   1.0000   1.0000   1.0000   1.0000
     1.0000   1.0000   0.0000   0.0000   0.0000   0.0000   0.0000

          k = 0.0833 0.5292 0.0775 (  1917 PWs)   bands (ev):

  -114.5438-114.5437 -68.7435 -68.7424 -68.7413 -68.7409 -68.7400 -68.7393
    -8.5156  -8.3036   2.9301   3.1432   3.4154   3.7296   3.8290   3.9365
     4.3982   4.4882   4.6092   4.7237   5.0580   5.4310   6.1847   6.6107
     7.6317   7.9097  14.6323  15.9746  16.6928  17.5036  19.4670

     occupation numbers 
     1.0000   1.0000   1.0000   1.0000   1.0000   1.0000   1.0000   1.0000
     1.0000   1.0000   1.0000   1.0000   1.0000   1.0000   1.0000   1.0000
     1.0000   1.0000   1.0000   1.0000   1.0000   1.0000   1.0000   1.0000
     1.0000   1.0000   0.0000   0.0000   0.0000   0.0000   0.0000

          k = 0.0833 0.5292 0.1550 (  1916 PWs)   bands (ev):

  -114.5438-114.5438 -68.7435 -68.7427 -68.7411 -68.7408 -68.7399 -68.7394
    -8.4878  -8.3253   2.8670   2.9990   3.4539   3.6995   3.7846   3.8540
     4.4548   4.5054   4.6032   4.7173   5.0580   5.3750   6.5200   6.8409
     7.6629   7.8203  14.5197  15.6423  16.9688  17.5503  19.3519

     occupation numbers 
     1.0000   1.0000   1.0000   1.0000   1.0000   1.0000   1.0000   1.0000
     1.0000   1.0000   1.0000   1.0000   1.0000   1.0000   1.0000   1.0000
     1.0000   1.0000   1.0000   1.0000   1.0000   1.0000   1.0000   1.0000
     1.0000   1.0000   0.0000   0.0000   0.0000   0.0000   0.0000

          k = 0.0833 0.5292 0.2325 (  1911 PWs)   bands (ev):

  -114.5438-114.5438 -68.7433 -68.7430 -68.7410 -68.7408 -68.7398 -68.7395
    -8.4475  -8.3594   2.8068   2.8643   3.5196   3.6707   3.7453   3.7623
     4.4963   4.5173   4.6162   4.6910   5.1085   5.2851   6.8731   7.2014
     7.4772   7.7680  14.5524  15.2174  17.2147  17.5267  19.4660

     occupation numbers 
     1.0000   1.0000   1.0000   1.0000   1.0000   1.0000   1.0000   1.0000
     1.0000   1.0000   1.0000   1.0000   1.0000   1.0000   1.0000   1.0000
     1.0000   1.0000   1.0000   1.0000   1.0000   1.0000   1.0000   1.0000
     1.0000   1.0000   0.0000   0.0000   0.0000   0.0000   0.0000

          k = 0.0833 0.5292-0.3100 (  1906 PWs)   bands (ev):

  -114.5438-114.5438 -68.7432 -68.7432 -68.7408 -68.7408 -68.7396 -68.7396
    -8.4022  -8.4022   2.7969   2.7969   3.6043   3.6043   3.7273   3.7273
     4.5146   4.5146   4.6523   4.6523   5.1906   5.1906   7.1889   7.1889
     7.5650   7.5650  14.8070  14.8070  17.4049  17.4049  19.8853

     occupation numbers 
     1.0000   1.0000   1.0000   1.0000   1.0000   1.0000   1.0000   1.0000
     1.0000   1.0000   1.0000   1.0000   1.0000   1.0000   1.0000   1.0000
     1.0000   1.0000   1.0000   1.0000   1.0000   1.0000   1.0000   1.0000
     1.0000   1.0000   0.0000   0.0000   0.0000   0.0000   0.0000

          k = 0.1667 0.2887 0.0000 (  1899 PWs)   bands (ev):

  -114.5439-114.5437 -68.7440 -68.7418 -68.7404 -68.7402 -68.7396 -68.7391
    -8.8280  -8.3377   2.9678   3.1712   3.3822   3.4362   3.7070   3.8124
     4.2330   4.3659   4.5834   4.7446   4.9555   6.3462   6.5994   7.1801
     8.2370   8.2667  12.7409  16.3345  17.2364  18.3638  20.0627

     occupation numbers 
     1.0000   1.0000   1.0000   1.0000   1.0000   1.0000   1.0000   1.0000
     1.0000   1.0000   1.0000   1.0000   1.0000   1.0000   1.0000   1.0000
     1.0000   1.0000   1.0000   1.0000   1.0000   1.0000   1.0000   1.0000
     1.0000   1.0000   0.0000   0.0000   0.0000   0.0000   0.0000

          k = 0.1667 0.2887 0.0775 (  1902 PWs)   bands (ev):

  -114.5439-114.5437 -68.7439 -68.7420 -68.7404 -68.7402 -68.7396 -68.7391
    -8.8092  -8.3561   2.9455   3.1400   3.3760   3.4177   3.6899   3.7090
     4.2589   4.3892   4.5759   4.7028   5.1802   6.4191   6.5928   7.1731
     8.1892   8.2646  12.8155  16.0561  17.3710  18.3984  20.2078

     occupation numbers 
     1.0000   1.0000   1.0000   1.0000   1.0000   1.0000   1.0000   1.0000
     1.0000   1.0000   1.0000   1.0000   1.0000   1.0000   1.0000   1.0000
     1.0000   1.0000   1.0000   1.0000   1.0000   1.0000   1.0000   1.0000
     1.0000   1.0000   0.0000   0.0000   0.0000   0.0000   0.0000

          k = 0.1667 0.2887 0.1550 (  1903 PWs)   bands (ev):

  -114.5438-114.5438 -68.7437 -68.7423 -68.7404 -68.7401 -68.7395 -68.7392
    -8.7557  -8.4086   2.8904   3.0311   3.3682   3.3920   3.5863   3.6447
     4.3251   4.4214   4.5555   4.6488   5.5810   6.5309   6.6561   7.2195
     8.0543   8.1952  13.0574  15.4596  17.6341  18.4753  20.3879

     occupation numbers 
     1.0000   1.0000   1.0000   1.0000   1.0000   1.0000   1.0000   1.0000
     1.0000   1.0000   1.0000   1.0000   1.0000   1.0000   1.0000   1.0000
     1.0000   1.0000   1.0000   1.0000   1.0000   1.0000   1.0000   1.0000
     1.0000   1.0000   0.0000   0.0000   0.0000   0.0000   0.0000

          k = 0.1667 0.2887 0.2325 (  1906 PWs)   bands (ev):

  -114.5438-114.5438 -68.7435 -68.7428 -68.7402 -68.7401 -68.7395 -68.7393
    -8.6757  -8.4877   2.8380   2.9010   3.3719   3.3896   3.5331   3.5870
     4.4099   4.4537   4.5270   4.5829   5.9264   6.3849   7.0620   7.3705
     7.8574   7.9699  13.4869  14.7639  17.9595  18.4899  20.2546

     occupation numbers 
     1.0000   1.0000   1.0000   1.0000   1.0000   1.0000   1.0000   1.0000
     1.0000   1.0000   1.0000   1.0000   1.0000   1.0000   1.0000   1.0000
     1.0000   1.0000   1.0000   1.0000   1.0000   1.0000   1.0000   1.0000
     1.0000   1.0000   0.0000   0.0000   0.0000   0.0000   0.0000

          k = 0.1667 0.2887-0.3100 (  1912 PWs)   bands (ev):

  -114.5438-114.5438 -68.7432 -68.7432 -68.7401 -68.7401 -68.7394 -68.7394
    -8.5815  -8.5815   2.8321   2.8321   3.3844   3.3844   3.5395   3.5395
     4.4791   4.4791   4.5121   4.5121   6.1830   6.1830   7.4800   7.4800
     7.6841   7.6841  14.0783  14.0783  18.2960  18.2960  20.0817

     occupation numbers 
     1.0000   1.0000   1.0000   1.0000   1.0000   1.0000   1.0000   1.0000
     1.0000   1.0000   1.0000   1.0000   1.0000   1.0000   1.0000   1.0000
     1.0000   1.0000   1.0000   1.0000   1.0000   1.0000   1.0000   1.0000
     1.0000   1.0000   0.0000   0.0000   0.0000   0.0000   0.0000

          k = 0.1667 0.3849 0.0000 (  1914 PWs)   bands (ev):

  -114.5438-114.5437 -68.7438 -68.7421 -68.7409 -68.7407 -68.7398 -68.7393
    -8.6684  -8.3016   3.0042   3.1766   3.4175   3.5544   3.8468   3.9392
     4.2298   4.3911   4.5996   4.8032   5.0399   5.8888   6.2731   6.5944
     7.9209   7.9830  13.7579  16.5596  17.4552  17.7146  19.8553

     occupation numbers 
     1.0000   1.0000   1.0000   1.0000   1.0000   1.0000   1.0000   1.0000
     1.0000   1.0000   1.0000   1.0000   1.0000   1.0000   1.0000   1.0000
     1.0000   1.0000   1.0000   1.0000   1.0000   1.0000   1.0000   1.0000
     1.0000   1.0000   0.0000   0.0000   0.0000   0.0000   0.0000

          k = 0.1667 0.3849 0.0775 (  1915 PWs)   bands (ev):

  -114.5438-114.5437 -68.7437 -68.7422 -68.7408 -68.7406 -68.7399 -68.7394
    -8.6537  -8.3147   2.9787   3.1485   3.4115   3.5362   3.8198   3.8267
     4.2563   4.4328   4.5934   4.7727   5.1754   5.9679   6.3177   6.6063
     7.8750   8.0007  13.7931  16.3508  17.5029  17.7552  19.8971

     occupation numbers 
     1.0000   1.0000   1.0000   1.0000   1.0000   1.0000   1.0000   1.0000
     1.0000   1.0000   1.0000   1.0000   1.0000   1.0000   1.0000   1.0000
     1.0000   1.0000   1.0000   1.0000   1.0000   1.0000   1.0000   1.0000
     1.0000   1.0000   0.0000   0.0000   0.0000   0.0000   0.0000

          k = 0.1667 0.3849 0.1550 (  1914 PWs)   bands (ev):

  -114.5438-114.5437 -68.7435 -68.7426 -68.7407 -68.7405 -68.7398 -68.7394
    -8.6122  -8.3524   2.9164   3.0523   3.4098   3.4978   3.6842   3.7633
     4.3298   4.4715   4.5788   4.7134   5.4044   6.0304   6.5525   6.7165
     7.7245   8.0086  13.9277  15.8563  17.6217  17.8514  19.7575

     occupation numbers 
     1.0000   1.0000   1.0000   1.0000   1.0000   1.0000   1.0000   1.0000
     1.0000   1.0000   1.0000   1.0000   1.0000   1.0000   1.0000   1.0000
     1.0000   1.0000   1.0000   1.0000   1.0000   1.0000   1.0000   1.0000
     1.0000   1.0000   0.0000   0.0000   0.0000   0.0000   0.0000

          k = 0.1667 0.3849 0.2325 (  1908 PWs)   bands (ev):

  -114.5438-114.5438 -68.7434 -68.7429 -68.7405 -68.7404 -68.7397 -68.7395
[...]
     7.0177   7.0918  14.0186  15.8829  16.6763  16.6880  19.1388

     occupation numbers 
     1.0000   1.0000   1.0000   1.0000   1.0000   1.0000   1.0000   1.0000
     1.0000   1.0000   1.0000   1.0000   1.0000   1.0000   1.0000   1.0000
     1.0000   1.0000   1.0000   1.0000   1.0000   1.0000   1.0000   1.0000
     1.0000   1.0000   0.0000   0.0000   0.0000   0.0000   0.0000

          k = 0.2469 0.4276 0.0765 (  1994 PWs)   bands (ev):

  -115.1232-115.1231 -69.3210 -69.3202 -69.3183 -69.3182 -69.3177 -69.3173
    -8.8999  -8.6945   2.6934   2.7694   3.0654   3.1018   3.4269   3.4514
     3.7109   3.8698   4.0378   4.2685   4.4974   5.1679   5.5166   5.8337
     6.9582   7.1441  14.0365  15.7779  16.7074  16.7095  18.8026

     occupation numbers 
     1.0000   1.0000   1.0000   1.0000   1.0000   1.0000   1.0000   1.0000
     1.0000   1.0000   1.0000   1.0000   1.0000   1.0000   1.0000   1.0000
     1.0000   1.0000   1.0000   1.0000   1.0000   1.0000   1.0000   1.0000
     1.0000   1.0000   0.0000   0.0000   0.0000   0.0000   0.0000

          k = 0.2469 0.4276 0.1530 (  1997 PWs)   bands (ev):

  -115.1232-115.1232 -69.3210 -69.3204 -69.3182 -69.3182 -69.3177 -69.3173
    -8.8733  -8.7159   2.6735   2.6738   3.0204   3.0619   3.3159   3.3533
     3.7827   3.9120   4.0403   4.2236   4.6299   5.1414   5.6285   6.1790
     6.8017   7.2337  14.1142  15.4856  16.7703  16.7904  18.3296

     occupation numbers 
     1.0000   1.0000   1.0000   1.0000   1.0000   1.0000   1.0000   1.0000
     1.0000   1.0000   1.0000   1.0000   1.0000   1.0000   1.0000   1.0000
     1.0000   1.0000   1.0000   1.0000   1.0000   1.0000   1.0000   1.0000
     1.0000   1.0000   0.0000   0.0000   0.0000   0.0000   0.0000

          k = 0.2469 0.4276 0.2295 (  1988 PWs)   bands (ev):

  -115.1232-115.1231 -69.3209 -69.3206 -69.3181 -69.3181 -69.3175 -69.3174
    -8.8347  -8.7494   2.5912   2.6133   2.9846   3.0476   3.2561   3.2772
     3.8543   3.9185   4.0596   4.1625   4.7732   5.0393   5.8695   6.3963
     6.7598   7.2306  14.3052  15.0699  16.8551  16.8889  18.0110

     occupation numbers 
     1.0000   1.0000   1.0000   1.0000   1.0000   1.0000   1.0000   1.0000
     1.0000   1.0000   1.0000   1.0000   1.0000   1.0000   1.0000   1.0000
     1.0000   1.0000   1.0000   1.0000   1.0000   1.0000   1.0000   1.0000
     1.0000   1.0000   0.0000   0.0000   0.0000   0.0000   0.0000

          k = 0.2469 0.4276-0.3060 (  1994 PWs)   bands (ev):

  -115.1232-115.1232 -69.3208 -69.3208 -69.3181 -69.3181 -69.3175 -69.3175
    -8.7910  -8.7910   2.5683   2.5683   3.0131   3.0131   3.2420   3.2420
     3.9005   3.9005   4.1027   4.1027   4.9109   4.9109   6.1604   6.1604
     7.0526   7.0526  14.6393  14.6393  16.9192  16.9192  17.9905

     occupation numbers 
     1.0000   1.0000   1.0000   1.0000   1.0000   1.0000   1.0000   1.0000
     1.0000   1.0000   1.0000   1.0000   1.0000   1.0000   1.0000   1.0000
     1.0000   1.0000   1.0000   1.0000   1.0000   1.0000   1.0000   1.0000
     1.0000   1.0000   0.0000   0.0000   0.0000   0.0000   0.0000

          k = 0.2469 0.5226 0.0000 (  1995 PWs)   bands (ev):

  -115.1232-115.1231 -69.3208 -69.3204 -69.3184 -69.3182 -69.3179 -69.3174
    -8.8156  -8.7035   2.6788   2.9681   3.1470   3.2384   3.5097   3.5997
     3.7676   3.7958   4.0280   4.0609   4.6041   4.8586   5.0326   6.0534
     6.6976   6.8576  14.9538  15.9120  16.1521  16.5428  18.8417

     occupation numbers 
     1.0000   1.0000   1.0000   1.0000   1.0000   1.0000   1.0000   1.0000
     1.0000   1.0000   1.0000   1.0000   1.0000   1.0000   1.0000   1.0000
     1.0000   1.0000   1.0000   1.0000   1.0000   1.0000   1.0000   1.0000
     1.0000   1.0000   0.0000   0.0000   0.0000   0.0000   0.0000

          k = 0.2469 0.5226 0.0765 (  1993 PWs)   bands (ev):

  -115.1232-115.1231 -69.3208 -69.3204 -69.3183 -69.3181 -69.3179 -69.3174
    -8.8101  -8.7065   2.6850   2.9283   3.0721   3.2325   3.4736   3.5314
     3.7610   3.8525   4.0422   4.1113   4.5839   4.9052   5.0480   6.1729
     6.6841   6.8837  14.9488  15.8654  16.2116  16.5756  18.4712

     occupation numbers 
     1.0000   1.0000   1.0000   1.0000   1.0000   1.0000   1.0000   1.0000
     1.0000   1.0000   1.0000   1.0000   1.0000   1.0000   1.0000   1.0000
     1.0000   1.0000   1.0000   1.0000   1.0000   1.0000   1.0000   1.0000
     1.0000   1.0000   0.0000   0.0000   0.0000   0.0000   0.0000

          k = 0.2469 0.5226 0.1530 (  1989 PWs)   bands (ev):

  -115.1232-115.1231 -69.3208 -69.3205 -69.3183 -69.3181 -69.3178 -69.3175
    -8.7949  -8.7155   2.6883   2.8302   2.9474   3.1876   3.4075   3.4354
     3.7987   3.8719   4.0882   4.2029   4.5638   4.8627   5.2427   6.4032
     6.5894   7.0212  14.9631  15.7462  16.3324  16.6748  17.8086

     occupation numbers 
     1.0000   1.0000   1.0000   1.0000   1.0000   1.0000   1.0000   1.0000
     1.0000   1.0000   1.0000   1.0000   1.0000   1.0000   1.0000   1.0000
     1.0000   1.0000   1.0000   1.0000   1.0000   1.0000   1.0000   1.0000
     1.0000   1.0000   0.0000   0.0000   0.0000   0.0000   0.0000

          k = 0.2469 0.5226 0.2295 (  1983 PWs)   bands (ev):

  -115.1232-115.1231 -69.3208 -69.3206 -69.3181 -69.3180 -69.3177 -69.3175
    -8.7737  -8.7306   2.6596   2.7153   2.9249   3.0969   3.3668   3.3823
     3.8298   3.8668   4.1537   4.2404   4.5938   4.7689   5.5459   6.2069
     6.8452   7.1264  15.0592  15.5389  16.4749  16.7758  17.3475

     occupation numbers 
     1.0000   1.0000   1.0000   1.0000   1.0000   1.0000   1.0000   1.0000
     1.0000   1.0000   1.0000   1.0000   1.0000   1.0000   1.0000   1.0000
     1.0000   1.0000   1.0000   1.0000   1.0000   1.0000   1.0000   1.0000
     1.0000   1.0000   0.0000   0.0000   0.0000   0.0000   0.0000

          k = 0.2469 0.5226-0.3060 (  1984 PWs)   bands (ev):

  -115.1231-115.1231 -69.3208 -69.3208 -69.3180 -69.3180 -69.3176 -69.3176
    -8.7509  -8.7509   2.6512   2.6512   2.9950   2.9950   3.3611   3.3611
     3.8517   3.8517   4.2129   4.2129   4.6727   4.6727   5.8826   5.8826
     7.0738   7.0738  15.2716  15.2716  16.6503  16.6503  17.4440

     occupation numbers 
     1.0000   1.0000   1.0000   1.0000   1.0000   1.0000   1.0000   1.0000
     1.0000   1.0000   1.0000   1.0000   1.0000   1.0000   1.0000   1.0000
     1.0000   1.0000   1.0000   1.0000   1.0000   1.0000   1.0000   1.0000
     1.0000   1.0000   0.0000   0.0000   0.0000   0.0000   0.0000

          k = 0.3292 0.5701 0.0000 (  1989 PWs)   bands (ev):

  -115.1232-115.1231 -69.3206 -69.3206 -69.3182 -69.3181 -69.3181 -69.3176
    -8.7456  -8.7456   2.6854   3.0693   3.0693   3.4363   3.6530   3.6530
     3.7259   3.8442   3.9088   3.9088   4.6414   4.7914   4.7914   6.4301
     6.4301   6.6199  15.7788  15.7788  15.9543  16.3655  18.8796

     occupation numbers 
     1.0000   1.0000   1.0000   1.0000   1.0000   1.0000   1.0000   1.0000
     1.0000   1.0000   1.0000   1.0000   1.0000   1.0000   1.0000   1.0000
     1.0000   1.0000   1.0000   1.0000   1.0000   1.0000   1.0000   1.0000
     1.0000   1.0000   0.0000   0.0000   0.0000   0.0000   0.0000

          k = 0.3292 0.5701 0.0765 (  1995 PWs)   bands (ev):

  -115.1232-115.1232 -69.3207 -69.3207 -69.3181 -69.3180 -69.3180 -69.3176
    -8.7443  -8.7443   2.7011   3.0201   3.0201   3.3710   3.5780   3.5780
     3.7360   3.8405   4.0022   4.0022   4.7404   4.7649   4.7649   6.5311
     6.5311   6.5467  15.8006  15.8006  15.9858  16.3596  18.5289

     occupation numbers 
     1.0000   1.0000   1.0000   1.0000   1.0000   1.0000   1.0000   1.0000
     1.0000   1.0000   1.0000   1.0000   1.0000   1.0000   1.0000   1.0000
     1.0000   1.0000   1.0000   1.0000   1.0000   1.0000   1.0000   1.0000
     1.0000   1.0000   0.0000   0.0000   0.0000   0.0000   0.0000

          k = 0.3292 0.5701 0.1530 (  1977 PWs)   bands (ev):

  -115.1231-115.1231 -69.3206 -69.3206 -69.3181 -69.3179 -69.3179 -69.3176
    -8.7411  -8.7411   2.7485   2.8998   2.8998   3.2288   3.4955   3.4955
     3.7543   3.8300   4.1372   4.1372   4.7068   4.7068   4.9913   6.3413
     6.7660   6.7660  15.8711  15.8711  16.0650  16.3400  17.8446

     occupation numbers 
     1.0000   1.0000   1.0000   1.0000   1.0000   1.0000   1.0000   1.0000
     1.0000   1.0000   1.0000   1.0000   1.0000   1.0000   1.0000   1.0000
     1.0000   1.0000   1.0000   1.0000   1.0000   1.0000   1.0000   1.0000
     1.0000   1.0000   0.0000   0.0000   0.0000   0.0000   0.0000

          k = 0.3292 0.5701 0.2295 (  1983 PWs)   bands (ev):

  -115.1231-115.1231 -69.3207 -69.3207 -69.3180 -69.3179 -69.3179 -69.3178
    -8.7378  -8.7378   2.7843   2.7843   2.8274   3.0746   3.4546   3.4546
     3.7742   3.8140   4.2364   4.2364   4.6509   4.6509   5.3234   6.0400
     6.9928   6.9928  15.9932  15.9932  16.1596  16.3026  17.2289

     occupation numbers 
     1.0000   1.0000   1.0000   1.0000   1.0000   1.0000   1.0000   1.0000
     1.0000   1.0000   1.0000   1.0000   1.0000   1.0000   1.0000   1.0000
     1.0000   1.0000   1.0000   1.0000   1.0000   1.0000   1.0000   1.0000
     1.0000   1.0000   0.0000   0.0000   0.0000   0.0000   0.0000

          k = 0.3292 0.5701-0.3060 (  1992 PWs)   bands (ev):

  -115.1231-115.1231 -69.3208 -69.3208 -69.3179 -69.3179 -69.3179 -69.3179
    -8.7365  -8.7365   2.7386   2.7386   2.9372   2.9372   3.4428   3.4428
     3.7946   3.7946   4.2745   4.2745   4.6265   4.6265   5.6866   5.6866
     7.0854   7.0854  16.0846  16.0846  16.2425  16.2425  16.9527

     occupation numbers 
     1.0000   1.0000   1.0000   1.0000   1.0000   1.0000   1.0000   1.0000
     1.0000   1.0000   1.0000   1.0000   1.0000   1.0000   1.0000   1.0000
     1.0000   1.0000   1.0000   1.0000   1.0000   1.0000   1.0000   1.0000
     1.0000   1.0000   0.0000   0.0000   0.0000   0.0000   0.0000

     the Fermi energy is     8.8402 ev

     WARNING: integrated charge=    52.00012941, expected=    52.00000000

!    total energy              =   -1006.57113396 Ry
     estimated scf accuracy    <          7.7E-11 Ry
     smearing contrib. (-TS)   =       0.00000134 Ry
     internal energy E=F+TS    =   -1006.57113530 Ry

     The total energy is F=E-TS. E is the sum of the following terms:
     one-electron contribution =    -814.86741867 Ry
     hartree contribution      =     428.54469864 Ry
     xc contribution           =     -99.45264236 Ry
     ewald contribution        =    -501.76470856 Ry
     one-center paw contrib.   =     -19.03106434 Ry
      -> PAW hartree energy AE =      52.44003268 Ry
      -> PAW hartree energy PS =     -52.19203760 Ry
      -> PAW xc energy AE      =     -33.36132434 Ry
      -> PAW xc energy PS      =      14.08226492 Ry
      -> total E_H with PAW    =     428.79269372 Ry
      -> total E_XC with PAW   =    -118.73170178 Ry

     convergence has been achieved in  12 iterations

     Forces acting on atoms (cartesian axes, Ry/au):

     atom    1 type  2   force =     0.00000000    0.00000000    0.00000444
     atom    2 type  2   force =     0.00000000    0.00000000    0.00000444
     atom    3 type  1   force =    -0.00000000   -0.00000000   -0.00000444
     atom    4 type  1   force =    -0.00000000   -0.00000000   -0.00000444
     The non-local contrib.  to forces
     atom    1 type  2   force =    -0.00000000   -0.00000000   -0.01019953
     atom    2 type  2   force =    -0.00000000    0.00000000   -0.01019953
     atom    3 type  1   force =     0.00000000    0.00000000    0.00553329
     atom    4 type  1   force =     0.00000000    0.00000000    0.00553329
     The ionic contribution  to forces
     atom    1 type  2   force =    -0.00000060    0.00000035    0.09435804
     atom    2 type  2   force =     0.00000060   -0.00000035    0.09435804
     atom    3 type  1   force =    -0.00000052    0.00000030   -0.09435804
     atom    4 type  1   force =     0.00000052   -0.00000030   -0.09435804
     The local contribution  to forces
     atom    1 type  2   force =    -0.00000981    0.00000566   -0.08415827
     atom    2 type  2   force =     0.00002943   -0.00001699   -0.08415888
     atom    3 type  1   force =    -0.00000057    0.00000033    0.08889339
     atom    4 type  1   force =     0.00000172   -0.00000100    0.08889437
     The core correction contribution to forces
     atom    1 type  2   force =     0.00000000    0.00000000    0.00000000
     atom    2 type  2   force =     0.00000000    0.00000000    0.00000000
     atom    3 type  1   force =    -0.00000000    0.00000000   -0.00007806
     atom    4 type  1   force =     0.00000000   -0.00000000   -0.00007806
     The Hubbard contrib.    to forces
     atom    1 type  2   force =     0.00000000    0.00000000    0.00000000
     atom    2 type  2   force =     0.00000000    0.00000000    0.00000000
     atom    3 type  1   force =     0.00000000    0.00000000    0.00000000
     atom    4 type  1   force =     0.00000000    0.00000000    0.00000000
     The SCF correction term to forces
     atom    1 type  2   force =    -0.00000000    0.00000000    0.00000026
     atom    2 type  2   force =     0.00000000   -0.00000000    0.00000026
     atom    3 type  1   force =    -0.00000000    0.00000000    0.00000025
     atom    4 type  1   force =     0.00000000   -0.00000000    0.00000025

     Total force =     0.000009     Total SCF correction =     0.000001


     Computing stress (Cartesian axis) and pressure

          total   stress  (Ry/bohr**3)                   (kbar)     P=        0.72
   0.00000441   0.00000000   0.00000000            0.65        0.00        0.00
   0.00000000   0.00000441   0.00000000            0.00        0.65        0.00
  -0.00000000  -0.00000000   0.00000593           -0.00       -0.00        0.87

     kinetic stress (kbar)  33665.11     -0.00      0.00
                               -0.00  33665.11     -0.00
                                0.00      0.00  33692.69

     local   stress (kbar)  -6810.13     -0.00     -0.00
                               -0.00  -6810.14      0.00
                               -0.00      0.00 -10673.67

     nonloc. stress (kbar)   -713.02     -0.00     -0.00
                               -0.00   -713.02     -0.00
                               -0.00     -0.00   -725.32

     hartree stress (kbar)  62629.61     -0.00      0.00
                               -0.00  62629.61     -0.00
                                0.00     -0.00  64474.63

     exc-cor stress (kbar) -13676.64      0.00     -0.00
                                0.00 -13676.64      0.00
                               -0.00      0.00 -13676.82

     corecor stress (kbar)   -375.96     -0.00      0.00
                               -0.00   -375.96     -0.00
                                0.00     -0.00   -375.99

     ewald   stress (kbar) -74718.31      0.00      0.00
                                0.00 -74718.31     -0.00
                                0.00     -0.00 -72714.65

     hubbard stress (kbar)      0.00      0.00      0.00
                                0.00      0.00      0.00
                                0.00      0.00      0.00

     DFT-D   stress (kbar)      0.00      0.00      0.00
                                0.00      0.00      0.00
                                0.00      0.00      0.00

     XDM     stress (kbar)      0.00      0.00      0.00
                                0.00      0.00      0.00
                                0.00      0.00      0.00

     dft-nl  stress (kbar)      0.00      0.00      0.00
                                0.00      0.00      0.00
                                0.00      0.00      0.00

     TS-vdW  stress (kbar)      0.00      0.00      0.00
                                0.00      0.00      0.00
                                0.00      0.00      0.00

     MDB     stress (kbar)      0.00      0.00      0.00
                                0.00      0.00      0.00
                                0.00      0.00      0.00

     3D-RISM stress (kbar)      0.00      0.00      0.00
                                0.00      0.00      0.00
                                0.00      0.00      0.00


     Writing all to output data dir ./temp_hexag/aiida.save/ :
     XML data file, charge density, pseudopotentials, collected wavefunctions

     init_run     :    744.54s CPU     33.11s WALL (       2 calls)
     electrons    :  28099.57s CPU   1296.96s WALL (       5 calls)
     update_pot   :      3.00s CPU      0.18s WALL (       3 calls)
     forces       :    378.41s CPU     16.51s WALL (       5 calls)
     stress       :    404.51s CPU     20.03s WALL (       5 calls)

     Called by init_run:
     wfcinit      :    734.07s CPU     32.04s WALL (       2 calls)
     wfcinit:atom :      6.89s CPU      0.32s WALL (     190 calls)
     wfcinit:wfcr :    715.39s CPU     30.95s WALL (     190 calls)
     potinit      :      4.68s CPU      0.24s WALL (       2 calls)
     hinit0       :      2.35s CPU      0.51s WALL (       2 calls)

     Called by electrons:
     c_bands      :  23410.07s CPU   1091.02s WALL (      44 calls)
     sum_band     :   4562.85s CPU    197.05s WALL (      44 calls)
     v_of_rho     :     27.23s CPU      1.20s WALL (      47 calls)
     v_h          :      4.53s CPU      0.21s WALL (      47 calls)
     v_xc         :     27.44s CPU      1.19s WALL (      57 calls)
     newd         :     54.36s CPU      5.26s WALL (      47 calls)
     PAW_pot      :     50.42s CPU      2.18s WALL (      50 calls)
     mix_rho      :      5.17s CPU      0.29s WALL (      44 calls)

     Called by c_bands:
     init_us_2    :    172.05s CPU      9.67s WALL (    9785 calls)
     cegterg      :  23069.81s CPU   1072.80s WALL (    4180 calls)

     Called by sum_band:
     sum_band:wei :      1.75s CPU      0.08s WALL (      44 calls)
     sum_band:loo :   4537.11s CPU    191.63s WALL (      44 calls)
     sum_band:buf :     11.08s CPU      0.49s WALL (    4180 calls)
     sum_band:ini :     76.94s CPU      3.55s WALL (    4180 calls)
     sum_band:cal :    515.11s CPU     20.28s WALL (    4465 calls)
     sum_band:bec :    213.97s CPU      9.31s WALL (    4465 calls)
     addusdens    :     20.84s CPU      4.88s WALL (      44 calls)
                                        0.00s GPU  (      44 calls)
     addusd:skk   :      0.16s CPU      0.02s WALL (      88 calls)
                                        0.00s GPU  (      88 calls)

     Called by *egterg:
     cdiaghg      :    164.91s CPU     12.24s WALL (   14567 calls)
     cegterg:over :   1423.41s CPU     58.06s WALL (   10862 calls)
     cegterg:upda :    564.73s CPU     44.47s WALL (   10862 calls)
     cegterg:last :    431.06s CPU     64.20s WALL (    8793 calls)
     h_psi        :  19108.84s CPU    821.51s WALL (   15232 calls)
     s_psi        :   1054.23s CPU     53.25s WALL (   15232 calls)
     g_psi        :    156.35s CPU      8.00s WALL (   10862 calls)

     Called by h_psi:
     h_psi:calbec :   1188.24s CPU     48.46s WALL (   15232 calls)
     vloc_psi     :  16370.98s CPU    710.47s WALL (   15232 calls)
     add_vuspsi   :   1310.37s CPU     50.76s WALL (   15232 calls)

     General routines
     calbec       :   1959.72s CPU     79.24s WALL (   22072 calls)
     fft          :     22.83s CPU      1.03s WALL (     731 calls)
     ffts         :      0.85s CPU      0.04s WALL (      91 calls)
     fftw         :   4910.61s CPU    219.75s WALL (  802462 calls)
     interpolate  :      2.06s CPU      0.10s WALL (      47 calls)

     Parallel routines

     PAW routines
     PAW_pot      :     50.42s CPU      2.18s WALL (      50 calls)
     PAW_symme    :      0.01s CPU      0.00s WALL (      94 calls)

     PWSCF        :      8h15m CPU  22m51.63s WALL


   This run was terminated on:  22:30:59  11Jun2024            

=------------------------------------------------------------------------------=
   JOB DONE.
=------------------------------------------------------------------------------=
