
     Program PWSCF v.7.3.1 starts on 12Jun2024 at  0:24: 7 

     This program is part of the open-source Quantum ESPRESSO suite
     for quantum simulation of materials; please cite
         "P. Giannozzi et al., J. Phys.:Condens. Matter 21 395502 (2009);
         "P. Giannozzi et al., J. Phys.:Condens. Matter 29 465901 (2017);
         "P. Giannozzi et al., J. Chem. Phys. 152 154105 (2020);
          URL http://www.quantum-espresso.org", 
     in publications or presentations arising from this work. More details at
     http://www.quantum-espresso.org/quote

     Parallel version (MPI & OpenMP), running on      24 processor cores
     Number of MPI processes:                 1
     Threads/MPI process:                    24

     MPI processes distributed on     1 nodes
     4753 MiB available memory on the printing compute node when the environment starts

     Waiting for input...
     Reading input from standard input

     Current dimensions of program PWSCF are:
     Max number of different atomic species (ntypx) = 10
     Max number of k-points (npk) =  40000
     Max angular momentum in pseudopotentials (lmaxx) =  4
     file O.pbe-n-kjpaw_psl.0.1.UPF: wavefunction(s)  2P renormalized
     Message from routine setup:
     using ibrav=0 with symmetry is DISCOURAGED, use correct ibrav instead

     Subspace diagonalization in iterative solution of the eigenvalue problem:
     a serial algorithm will be used


     G-vector sticks info
     --------------------
     sticks:   dense  smooth     PW     G-vecs:    dense   smooth      PW
     Sum        1039     511    163                43245    15267    2599

     Using Slab Decomposition



     bravais-lattice index     =            0
     lattice parameter (alat)  =       6.1177  a.u.
     unit-cell volume          =     319.8518 (a.u.)^3
     number of atoms/cell      =            4
     number of atomic types    =            2
     number of electrons       =        52.00
     number of Kohn-Sham states=           31
     kinetic-energy cutoff     =      50.0000  Ry
     charge density cutoff     =     400.0000  Ry
     scf convergence threshold =      2.0E-08
     mixing beta               =       0.4000
     number of iterations used =            8  plain     mixing
     Exchange-correlation= SLA  PW   PBE  PBE
                           (   1   4   3   4   0   0   0)

     celldm(1)=   6.117707  celldm(2)=   0.000000  celldm(3)=   0.000000
     celldm(4)=   0.000000  celldm(5)=   0.000000  celldm(6)=   0.000000

     crystal axes: (cart. coord. in units of alat)
               a(1) = (   1.000000   0.000000   0.000000 )  
               a(2) = (  -0.500000   0.866025   0.000000 )  
               a(3) = (   0.000000   0.000000   1.613066 )  

     reciprocal axes: (cart. coord. in units 2 pi/alat)
               b(1) = (  1.000000  0.577350 -0.000000 )  
               b(2) = (  0.000000  1.154701  0.000000 )  
               b(3) = (  0.000000 -0.000000  0.619937 )  


     PseudoPot. # 1 for O  read from file:
     ../SSSP_1.3.0_PBE_efficiency/O.pbe-n-kjpaw_psl.0.1.UPF
     MD5 check sum: 0234752ac141de4415c5fc33072bef88
     Pseudo is Projector augmented-wave + core cor, Zval =  6.0
     Generated using "atomic" code by A. Dal Corso  v.5.0.99 svn rev. 10869
     Shape of augmentation charge: BESSEL
     Using radial grid of 1095 points,  4 beta functions with: 
                l(1) =   0
                l(2) =   0
                l(3) =   1
                l(4) =   1
     Q(r) pseudized with 0 coefficients 


     PseudoPot. # 2 for Zn read from file:
     ../SSSP_1.3.0_PBE_efficiency/Zn_pbe_v1.uspp.F.UPF
     MD5 check sum: df62231357ef9e81f77b2b3087fa5675
     Pseudo is Ultrasoft, Zval = 20.0
     Generated by new atomic code, or converted to UPF format
     Using radial grid of  943 points,  6 beta functions with: 
                l(1) =   0
                l(2) =   0
                l(3) =   1
                l(4) =   1
                l(5) =   2
                l(6) =   2
     Q(r) pseudized with  8 coefficients,  rinner =    1.100   1.100   1.100
                                                       1.100   1.100

     atomic species   valence    mass     pseudopotential
     O                 6.00    15.99940     O ( 1.00)
     Zn               20.00    65.38000     Zn( 1.00)

     12 Sym. Ops. (no inversion) found ( 6 have fractional translation)


                                    s                        frac. trans.

      isym =  1     identity                                     

 cryst.   s( 1) = (     1          0          0      )
                  (     0          1          0      )
                  (     0          0          1      )

 cart.    s( 1) = (  1.0000000  0.0000000  0.0000000 )
                  (  0.0000000  1.0000000  0.0000000 )
                  (  0.0000000  0.0000000  1.0000000 )


      isym =  2     180 deg rotation - cart. axis [0,0,1]        

 cryst.   s( 2) = (    -1          0          0      )    f =(  0.0000000 )
                  (     0         -1          0      )       ( -0.0000000 )
                  (     0          0          1      )       (  0.5000000 )

 cart.    s( 2) = ( -1.0000000  0.0000000  0.0000000 )    f =(  0.0000000 )
                  (  0.0000000 -1.0000000  0.0000000 )       ( -0.0000000 )
                  (  0.0000000  0.0000000  1.0000000 )       (  0.8065331 )


      isym =  3      60 deg rotation - cryst. axis [0,0,1]       

 cryst.   s( 3) = (     1          1          0      )    f =( -0.0000000 )
                  (    -1          0          0      )       (  0.0000000 )
                  (     0          0          1      )       (  0.5000000 )

 cart.    s( 3) = (  0.5000000 -0.8660254  0.0000000 )    f =( -0.0000000 )
                  (  0.8660254  0.5000000  0.0000000 )       (  0.0000000 )
                  (  0.0000000  0.0000000  1.0000000 )       (  0.8065331 )


      isym =  4      60 deg rotation - cryst. axis [0,0,-1]      

 cryst.   s( 4) = (     0         -1          0      )    f =(  0.0000000 )
                  (     1          1          0      )       (  0.0000000 )
                  (     0          0          1      )       (  0.5000000 )

 cart.    s( 4) = (  0.5000000  0.8660254  0.0000000 )    f =( -0.0000000 )
                  ( -0.8660254  0.5000000  0.0000000 )       (  0.0000000 )
                  (  0.0000000  0.0000000  1.0000000 )       (  0.8065331 )


      isym =  5     120 deg rotation - cryst. axis [0,0,1]       

 cryst.   s( 5) = (     0          1          0      )
                  (    -1         -1          0      )
                  (     0          0          1      )

 cart.    s( 5) = ( -0.5000000 -0.8660254  0.0000000 )
                  (  0.8660254 -0.5000000  0.0000000 )
                  (  0.0000000  0.0000000  1.0000000 )


      isym =  6     120 deg rotation - cryst. axis [0,0,-1]      

 cryst.   s( 6) = (    -1         -1          0      )
                  (     1          0          0      )
                  (     0          0          1      )

 cart.    s( 6) = ( -0.5000000  0.8660254  0.0000000 )
                  ( -0.8660254 -0.5000000  0.0000000 )
                  (  0.0000000  0.0000000  1.0000000 )


      isym =  7     inv. 180 deg rotation - cart. axis [0,1,0]   

 cryst.   s( 7) = (     1          0          0      )    f =( -0.0000000 )
                  (    -1         -1          0      )       ( -0.0000000 )
                  (     0          0          1      )       (  0.5000000 )

 cart.    s( 7) = (  1.0000000  0.0000000  0.0000000 )    f =( -0.0000000 )
                  (  0.0000000 -1.0000000  0.0000000 )       ( -0.0000000 )
                  (  0.0000000  0.0000000  1.0000000 )       (  0.8065331 )


      isym =  8     inv. 180 deg rotation - cart. axis [1,0,0]   

 cryst.   s( 8) = (    -1          0          0      )
                  (     1          1          0      )
                  (     0          0          1      )

 cart.    s( 8) = ( -1.0000000  0.0000000  0.0000000 )
                  (  0.0000000  1.0000000  0.0000000 )
                  (  0.0000000  0.0000000  1.0000000 )


      isym =  9     inv. 180 deg rotation - cryst. axis [1,-1,0] 

 cryst.   s( 9) = (     0          1          0      )    f =(  0.0000000 )
                  (     1          0          0      )       (  0.0000000 )
                  (     0          0          1      )       (  0.5000000 )

 cart.    s( 9) = ( -0.5000000  0.8660254  0.0000000 )    f =(  0.0000000 )
                  (  0.8660254  0.5000000  0.0000000 )       (  0.0000000 )
                  (  0.0000000  0.0000000  1.0000000 )       (  0.8065331 )


      isym = 10     inv. 180 deg rotation - cryst. axis [2,1,0]  

 cryst.   s(10) = (    -1         -1          0      )    f =(  0.0000000 )
                  (     0          1          0      )       (  0.0000000 )
                  (     0          0          1      )       (  0.5000000 )

 cart.    s(10) = ( -0.5000000 -0.8660254  0.0000000 )    f =( -0.0000000 )
                  ( -0.8660254  0.5000000  0.0000000 )       (  0.0000000 )
                  (  0.0000000  0.0000000  1.0000000 )       (  0.8065331 )


      isym = 11     inv. 180 deg rotation - cryst. axis [0,1,0]  

 cryst.   s(11) = (     1          1          0      )
                  (     0         -1          0      )
                  (     0          0          1      )

 cart.    s(11) = (  0.5000000  0.8660254  0.0000000 )
                  (  0.8660254 -0.5000000  0.0000000 )
                  (  0.0000000  0.0000000  1.0000000 )


      isym = 12     inv. 180 deg rotation - cryst. axis [1,1,0]  

 cryst.   s(12) = (     0         -1          0      )
                  (    -1          0          0      )
                  (     0          0          1      )

 cart.    s(12) = (  0.5000000 -0.8660254  0.0000000 )
                  ( -0.8660254 -0.5000000  0.0000000 )
                  (  0.0000000  0.0000000  1.0000000 )


   Cartesian axes

     site n.     atom                  positions (alat units)
         1        Zn     tau(   1) = (   0.5000000   0.2886751   0.8074875  )
         2        Zn     tau(   2) = (  -0.0000000   0.5773503   0.0009545  )
         3        O      tau(   3) = (   0.5000000   0.2886751   1.4190438  )
         4        O      tau(   4) = (  -0.0000000   0.5773503   0.6125107  )

   Crystallographic axes

     site n.     atom                  positions (cryst. coord.)
         1        Zn     tau(   1) = (  0.6666667  0.3333333  0.5005917  )
         2        Zn     tau(   2) = (  0.3333333  0.6666667  0.0005917  )
         3        O      tau(   3) = (  0.6666667  0.3333333  0.8797183  )
         4        O      tau(   4) = (  0.3333333  0.6666667  0.3797183  )

     number of k points=     6  Marzari-Vanderbilt smearing, width (Ry)=  0.0147
                       cart. coord. in units 2pi/alat
        k(    1) = (   0.0000000   0.0000000   0.0000000), wk =   0.1111111
        k(    2) = (   0.0000000   0.0000000  -0.3099687), wk =   0.1111111
        k(    3) = (   0.0000000   0.3849002   0.0000000), wk =   0.6666667
        k(    4) = (   0.0000000   0.3849002  -0.3099687), wk =   0.6666667
        k(    5) = (   0.3333333   0.5773503   0.0000000), wk =   0.2222222
        k(    6) = (   0.3333333   0.5773503  -0.3099687), wk =   0.2222222

                       cryst. coord.
        k(    1) = (   0.0000000   0.0000000   0.0000000), wk =   0.1111111
        k(    2) = (   0.0000000   0.0000000  -0.5000000), wk =   0.1111111
        k(    3) = (   0.0000000   0.3333333   0.0000000), wk =   0.6666667
        k(    4) = (   0.0000000   0.3333333  -0.5000000), wk =   0.6666667
        k(    5) = (   0.3333333   0.3333333   0.0000000), wk =   0.2222222
        k(    6) = (   0.3333333   0.3333333  -0.5000000), wk =   0.2222222

     Dense  grid:    43245 G-vectors     FFT dimensions: (  40,  40,  64)

     Smooth grid:    15267 G-vectors     FFT dimensions: (  27,  27,  48)

     Dynamical RAM for                 wfc:       0.90 MB

     Dynamical RAM for     wfc (w. buffer):       6.32 MB

     Dynamical RAM for           str. fact:       1.32 MB

     Dynamical RAM for           local pot:       0.00 MB

     Dynamical RAM for          nlocal pot:       1.52 MB

     Dynamical RAM for                qrad:       3.21 MB

     Dynamical RAM for          rho,v,vnew:       4.32 MB

     Dynamical RAM for               rhoin:       1.44 MB

     Dynamical RAM for            rho*nmix:      10.56 MB

     Dynamical RAM for           G-vectors:       2.59 MB

     Dynamical RAM for          h,s,v(r/c):       0.18 MB

     Dynamical RAM for          <psi|beta>:       0.02 MB

     Dynamical RAM for                 psi:       1.81 MB

     Dynamical RAM for                hpsi:       1.81 MB

     Dynamical RAM for                spsi:       1.81 MB

     Dynamical RAM for      wfcinit/wfcrot:       2.01 MB

     Dynamical RAM for           addusdens:     124.05 MB

     Dynamical RAM for          addusforce:     125.71 MB

     Dynamical RAM for         addusstress:     132.63 MB

     Estimated static dynamical RAM per process >      26.61 MB

     Estimated max dynamical RAM per process >     169.80 MB

     Check: negative core charge=   -0.000003

     Initial potential from superposition of free atoms

     starting charge      51.9997, renormalised to      52.0000
     Starting wfcs are   34 randomized atomic wfcs
     Checking if some PAW data can be deallocated... 

     total cpu time spent up to now is        1.9 secs

     Self-consistent Calculation

     iteration #  1     ecut=    50.00 Ry     beta= 0.40
     Davidson diagonalization with overlap

---- Real-time Memory Report at c_bands before calling an iterative solver
           175 MiB given to the printing process from OS
             0 MiB allocation reported by mallinfo(arena+hblkhd)
          4724 MiB available memory on the node where the printing process lives
------------------
     ethr =  1.00E-02,  avg # of iterations =  2.8

     total cpu time spent up to now is        3.3 secs

     total energy              =   -1006.31216106 Ry
     estimated scf accuracy    <       0.86556666 Ry

     iteration #  2     ecut=    50.00 Ry     beta= 0.40
     Davidson diagonalization with overlap

---- Real-time Memory Report at c_bands before calling an iterative solver
           210 MiB given to the printing process from OS
             0 MiB allocation reported by mallinfo(arena+hblkhd)
          4688 MiB available memory on the node where the printing process lives
------------------
     ethr =  1.66E-03,  avg # of iterations =  2.0

     total cpu time spent up to now is        5.2 secs

     total energy              =   -1006.54603650 Ry
     estimated scf accuracy    <       0.09691405 Ry

     iteration #  3     ecut=    50.00 Ry     beta= 0.40
     Davidson diagonalization with overlap

---- Real-time Memory Report at c_bands before calling an iterative solver
           210 MiB given to the printing process from OS
             0 MiB allocation reported by mallinfo(arena+hblkhd)
          4686 MiB available memory on the node where the printing process lives
------------------
     ethr =  1.86E-04,  avg # of iterations =  2.8

     total cpu time spent up to now is        7.0 secs

     WARNING: integrated charge=    52.00264412, expected=    52.00000000

     total energy              =   -1006.55559150 Ry
     estimated scf accuracy    <       0.00948758 Ry

     iteration #  4     ecut=    50.00 Ry     beta= 0.40
     Davidson diagonalization with overlap

---- Real-time Memory Report at c_bands before calling an iterative solver
           211 MiB given to the printing process from OS
             0 MiB allocation reported by mallinfo(arena+hblkhd)
          4685 MiB available memory on the node where the printing process lives
------------------
     ethr =  1.82E-05,  avg # of iterations =  2.2

     total cpu time spent up to now is       10.1 secs

     WARNING: integrated charge=    52.00345786, expected=    52.00000000

     total energy              =   -1006.55730423 Ry
     estimated scf accuracy    <       0.00177019 Ry

     iteration #  5     ecut=    50.00 Ry     beta= 0.40
     Davidson diagonalization with overlap

---- Real-time Memory Report at c_bands before calling an iterative solver
           211 MiB given to the printing process from OS
             0 MiB allocation reported by mallinfo(arena+hblkhd)
          4682 MiB available memory on the node where the printing process lives
------------------
     ethr =  3.40E-06,  avg # of iterations =  2.5

     total cpu time spent up to now is       11.8 secs

     WARNING: integrated charge=    52.00285757, expected=    52.00000000

     total energy              =   -1006.55723924 Ry
     estimated scf accuracy    <       0.00004635 Ry

     iteration #  6     ecut=    50.00 Ry     beta= 0.40
     Davidson diagonalization with overlap

---- Real-time Memory Report at c_bands before calling an iterative solver
           212 MiB given to the printing process from OS
             0 MiB allocation reported by mallinfo(arena+hblkhd)
          4682 MiB available memory on the node where the printing process lives
------------------
     ethr =  8.91E-08,  avg # of iterations =  3.2

     total cpu time spent up to now is       18.1 secs

     WARNING: integrated charge=    52.00306119, expected=    52.00000000

     total energy              =   -1006.55705583 Ry
     estimated scf accuracy    <       0.00008637 Ry

     iteration #  7     ecut=    50.00 Ry     beta= 0.40
     Davidson diagonalization with overlap

---- Real-time Memory Report at c_bands before calling an iterative solver
           212 MiB given to the printing process from OS
             0 MiB allocation reported by mallinfo(arena+hblkhd)
          4613 MiB available memory on the node where the printing process lives
------------------
     ethr =  8.91E-08,  avg # of iterations =  2.2

     total cpu time spent up to now is       21.6 secs

     WARNING: integrated charge=    52.00299786, expected=    52.00000000

     total energy              =   -1006.55723944 Ry
     estimated scf accuracy    <       0.00000026 Ry

     iteration #  8     ecut=    50.00 Ry     beta= 0.40
     Davidson diagonalization with overlap

---- Real-time Memory Report at c_bands before calling an iterative solver
           213 MiB given to the printing process from OS
             0 MiB allocation reported by mallinfo(arena+hblkhd)
          4609 MiB available memory on the node where the printing process lives
------------------
     ethr =  5.01E-10,  avg # of iterations =  3.2

     total cpu time spent up to now is       25.2 secs

     WARNING: integrated charge=    52.00296931, expected=    52.00000000

     total energy              =   -1006.55723500 Ry
     estimated scf accuracy    <       0.00000003 Ry

     iteration #  9     ecut=    50.00 Ry     beta= 0.40
     Davidson diagonalization with overlap

---- Real-time Memory Report at c_bands before calling an iterative solver
           213 MiB given to the printing process from OS
             0 MiB allocation reported by mallinfo(arena+hblkhd)
          4604 MiB available memory on the node where the printing process lives
------------------
     ethr =  4.94E-11,  avg # of iterations =  3.0

     total cpu time spent up to now is       29.2 secs

     WARNING: integrated charge=    52.00298185, expected=    52.00000000

     total energy              =   -1006.55723736 Ry
     estimated scf accuracy    <       0.00000013 Ry

     iteration # 10     ecut=    50.00 Ry     beta= 0.40
     Davidson diagonalization with overlap

---- Real-time Memory Report at c_bands before calling an iterative solver
           214 MiB given to the printing process from OS
             0 MiB allocation reported by mallinfo(arena+hblkhd)
          4601 MiB available memory on the node where the printing process lives
------------------
     ethr =  4.94E-11,  avg # of iterations =  3.0

     total cpu time spent up to now is       32.2 secs

     End of self-consistent calculation

          k = 0.0000 0.0000 0.0000 (  1883 PWs)   bands (ev):

  -114.5284-114.5282 -68.7319 -68.7286 -68.7235 -68.7235 -68.7229 -68.7229
    -9.1656  -8.4276   3.1848   3.1848   3.2270   3.2628   3.3789   3.3789
     4.3586   4.3586   4.5700   4.5700   4.8509   8.1476   8.1476   8.8541
     8.9501   8.9501   9.7212  14.1701  17.1523  21.8606  21.8606

     occupation numbers 
     1.0000   1.0000   1.0000   1.0000   1.0000   1.0000   1.0000   1.0000
     1.0000   1.0000   1.0000   1.0000   1.0000   1.0000   1.0000   1.0000
     1.0000   1.0000   1.0000   1.0000   1.0000   1.0000   1.0000   1.0009
     1.0065   1.0065   0.0130   0.0000   0.0000   0.0000   0.0000

          k = 0.0000 0.0000-0.3100 (  1894 PWs)   bands (ev):

  -114.5283-114.5283 -68.7304 -68.7304 -68.7232 -68.7232 -68.7232 -68.7232
    -8.8073  -8.8073   2.9758   2.9758   3.2568   3.2568   3.2568   3.2568
     4.4860   4.4860   4.4860   4.4860   6.6683   6.6683   8.5533   8.5533
     8.5533   8.5533  12.3964  12.3964  19.0045  19.0045  22.1443

     occupation numbers 
     1.0000   1.0000   1.0000   1.0000   1.0000   1.0000   1.0000   1.0000
     1.0000   1.0000   1.0000   1.0000   1.0000   1.0000   1.0000   1.0000
     1.0000   1.0000   1.0000   1.0000   1.0000   1.0000   1.0000   1.0000
     1.0000   1.0000   0.0000   0.0000   0.0000   0.0000   0.0000

          k = 0.0000 0.3849 0.0000 (  1906 PWs)   bands (ev):

  -114.5283-114.5282 -68.7311 -68.7291 -68.7252 -68.7247 -68.7241 -68.7233
    -8.6773  -8.2538   2.8839   3.2376   3.3980   3.5987   3.7981   3.9162
     4.2676   4.4344   4.6028   4.7549   5.0330   5.7446   6.6503   7.0688
     8.1090   8.3338  13.2119  16.4759  16.8913  17.7804  19.9705

     occupation numbers 
     1.0000   1.0000   1.0000   1.0000   1.0000   1.0000   1.0000   1.0000
     1.0000   1.0000   1.0000   1.0000   1.0000   1.0000   1.0000   1.0000
     1.0000   1.0000   1.0000   1.0000   1.0000   1.0000   1.0000   1.0000
     1.0000   1.0000   0.0000   0.0000   0.0000   0.0000   0.0000

          k = 0.0000 0.3849-0.3100 (  1906 PWs)   bands (ev):

  -114.5282-114.5282 -68.7303 -68.7303 -68.7248 -68.7248 -68.7236 -68.7236
    -8.4617  -8.4616   2.7953   2.7953   3.5668   3.5668   3.5703   3.5703
     4.5115   4.5115   4.5260   4.5260   5.8562   5.8562   7.5281   7.5281
     7.7261   7.7261  14.2156  14.2156  17.8812  17.8812  20.3945

     occupation numbers 
     1.0000   1.0000   1.0000   1.0000   1.0000   1.0000   1.0000   1.0000
     1.0000   1.0000   1.0000   1.0000   1.0000   1.0000   1.0000   1.0000
     1.0000   1.0000   1.0000   1.0000   1.0000   1.0000   1.0000   1.0000
     1.0000   1.0000   0.0000   0.0000   0.0000   0.0000   0.0000

          k = 0.3333 0.5774 0.0000 (  1923 PWs)   bands (ev):

  -114.5282-114.5282 -68.7301 -68.7301 -68.7252 -68.7250 -68.7250 -68.7244
    -8.2943  -8.2943   3.1410   3.5432   3.5432   3.9039   4.1749   4.1749
     4.2835   4.4208   4.4556   4.4556   5.1582   5.3786   5.3786   7.0026
     7.0026   7.1985  16.5928  16.6656  16.6656  17.1191  19.7218

     occupation numbers 
     1.0000   1.0000   1.0000   1.0000   1.0000   1.0000   1.0000   1.0000
     1.0000   1.0000   1.0000   1.0000   1.0000   1.0000   1.0000   1.0000
     1.0000   1.0000   1.0000   1.0000   1.0000   1.0000   1.0000   1.0000
     1.0000   1.0000   0.0000   0.0000   0.0000   0.0000   0.0000

          k = 0.3333 0.5774-0.3100 (  1908 PWs)   bands (ev):

  -114.5282-114.5282 -68.7303 -68.7303 -68.7248 -68.7248 -68.7247 -68.7247
    -8.2836  -8.2836   3.1692   3.1692   3.3967   3.3967   3.9546   3.9546
     4.3645   4.3645   4.8929   4.8929   5.1914   5.1914   6.2285   6.2285
     7.6799   7.6799  16.9305  16.9306  16.9574  16.9574  17.8069

     occupation numbers 
     1.0000   1.0000   1.0000   1.0000   1.0000   1.0000   1.0000   1.0000
     1.0000   1.0000   1.0000   1.0000   1.0000   1.0000   1.0000   1.0000
     1.0000   1.0000   1.0000   1.0000   1.0000   1.0000   1.0000   1.0000
     1.0000   1.0000   0.0000   0.0000   0.0000   0.0000   0.0000

     the Fermi energy is     9.4773 ev

     WARNING: integrated charge=    52.00297838, expected=    52.00000000

!    total energy              =   -1006.55724475 Ry
     estimated scf accuracy    <          4.3E-09 Ry
     smearing contrib. (-TS)   =       0.00003499 Ry
     internal energy E=F+TS    =   -1006.55727974 Ry

     The total energy is F=E-TS. E is the sum of the following terms:
     one-electron contribution =    -804.08129610 Ry
     hartree contribution      =     424.26877948 Ry
     xc contribution           =     -99.55097086 Ry
     ewald contribution        =    -508.17051050 Ry
     one-center paw contrib.   =     -19.02328177 Ry
      -> PAW hartree energy AE =      53.05906819 Ry
      -> PAW hartree energy PS =     -52.80419733 Ry
      -> PAW xc energy AE      =     -33.45678470 Ry
      -> PAW xc energy PS      =      14.17863208 Ry
      -> total E_H with PAW    =     424.52365034 Ry
      -> total E_XC with PAW   =    -118.82912348 Ry

     convergence has been achieved in  10 iterations

     Forces acting on atoms (cartesian axes, Ry/au):

     atom    1 type  2   force =    -0.00000000   -0.00000000    0.00055538
     atom    2 type  2   force =     0.00000000    0.00000000    0.00055538
     atom    3 type  1   force =     0.00000000    0.00000000   -0.00055538
     atom    4 type  1   force =     0.00000000    0.00000000   -0.00055538
     The non-local contrib.  to forces
     atom    1 type  2   force =     0.00000000   -0.00000000   -0.03361073
     atom    2 type  2   force =     0.00000000   -0.00000000   -0.03361073
     atom    3 type  1   force =    -0.00000000   -0.00000000    0.01588401
     atom    4 type  1   force =     0.00000000    0.00000000    0.01588401
     The ionic contribution  to forces
     atom    1 type  2   force =    -0.00000062    0.00000036    0.08378819
     atom    2 type  2   force =     0.00000062   -0.00000036    0.08378819
     atom    3 type  1   force =    -0.00000053    0.00000031   -0.08378819
     atom    4 type  1   force =     0.00000053   -0.00000031   -0.08378819
     The local contribution  to forces
     atom    1 type  2   force =    -0.00000967    0.00000558   -0.04961624
     atom    2 type  2   force =     0.00002902   -0.00001675   -0.04961685
     atom    3 type  1   force =    -0.00000056    0.00000033    0.06756727
     atom    4 type  1   force =     0.00000169   -0.00000098    0.06756827
     The core correction contribution to forces
     atom    1 type  2   force =     0.00000000    0.00000000    0.00000000
     atom    2 type  2   force =     0.00000000    0.00000000    0.00000000
     atom    3 type  1   force =    -0.00000000    0.00000000   -0.00022509
     atom    4 type  1   force =     0.00000000   -0.00000000   -0.00022509
     The Hubbard contrib.    to forces
     atom    1 type  2   force =     0.00000000    0.00000000    0.00000000
     atom    2 type  2   force =     0.00000000    0.00000000    0.00000000
     atom    3 type  1   force =     0.00000000    0.00000000    0.00000000
     atom    4 type  1   force =     0.00000000    0.00000000    0.00000000
     The SCF correction term to forces
     atom    1 type  2   force =    -0.00000000    0.00000000   -0.00001227
     atom    2 type  2   force =     0.00000000   -0.00000000   -0.00001227
     atom    3 type  1   force =    -0.00000000    0.00000000   -0.00000061
     atom    4 type  1   force =     0.00000000   -0.00000000   -0.00000061

     Total force =     0.001111     Total SCF correction =     0.000017


     Computing stress (Cartesian axis) and pressure

          total   stress  (Ry/bohr**3)                   (kbar)     P=       58.07
   0.00042132   0.00000000   0.00000000           61.98        0.00        0.00
   0.00000000   0.00042132   0.00000000            0.00       61.98        0.00
   0.00000000   0.00000000   0.00034153            0.00        0.00       50.24

     kinetic stress (kbar)  35055.71      0.00     -0.00
                                0.00  35055.71      0.00
                               -0.00      0.00  35046.00

     local   stress (kbar)  -5402.29     -0.00     -0.00
                               -0.00  -5402.29      0.00
                               -0.00      0.00  -9539.37

     nonloc. stress (kbar)   -732.14      0.00      0.00
                                0.00   -732.14      0.00
                                0.00      0.00   -752.26

     hartree stress (kbar)  64382.78     -0.00      0.00
                               -0.00  64382.78     -0.00
                                0.00     -0.00  66362.60

     exc-cor stress (kbar) -14220.90      0.00     -0.00
                                0.00 -14220.90      0.00
                               -0.00      0.00 -14220.94

     corecor stress (kbar)   -390.79     -0.00      0.00
                               -0.00   -390.79     -0.00
                                0.00     -0.00   -390.63

     ewald   stress (kbar) -78630.39      0.00      0.00
                                0.00 -78630.39      0.00
                                0.00      0.00 -76455.16

     hubbard stress (kbar)      0.00      0.00      0.00
                                0.00      0.00      0.00
                                0.00      0.00      0.00

     DFT-D   stress (kbar)      0.00      0.00      0.00
                                0.00      0.00      0.00
                                0.00      0.00      0.00

     XDM     stress (kbar)      0.00      0.00      0.00
                                0.00      0.00      0.00
                                0.00      0.00      0.00

     dft-nl  stress (kbar)      0.00      0.00      0.00
                                0.00      0.00      0.00
                                0.00      0.00      0.00

     TS-vdW  stress (kbar)      0.00      0.00      0.00
                                0.00      0.00      0.00
                                0.00      0.00      0.00

     MDB     stress (kbar)      0.00      0.00      0.00
                                0.00      0.00      0.00
                                0.00      0.00      0.00

     3D-RISM stress (kbar)      0.00      0.00      0.00
                                0.00      0.00      0.00
                                0.00      0.00      0.00


     Writing all to output data dir ./temp_hexag/aiida.save/ :
     XML data file, charge density, pseudopotentials, collected wavefunctions

     init_run     :     15.18s CPU      0.97s WALL (       1 calls)
     electrons    :    634.18s CPU     30.37s WALL (       1 calls)
     forces       :      6.98s CPU      0.40s WALL (       1 calls)
     stress       :      9.66s CPU      1.03s WALL (       1 calls)

     Called by init_run:
     wfcinit      :     10.31s CPU      0.47s WALL (       1 calls)
     wfcinit:atom :      0.00s CPU      0.00s WALL (       6 calls)
     wfcinit:wfcr :     10.28s CPU      0.44s WALL (       6 calls)
     potinit      :      2.02s CPU      0.12s WALL (       1 calls)
     hinit0       :      1.47s CPU      0.23s WALL (       1 calls)

     Called by electrons:
     c_bands      :    496.38s CPU     22.66s WALL (      10 calls)
     sum_band     :    100.32s CPU      5.35s WALL (      10 calls)
     v_of_rho     :      6.65s CPU      0.30s WALL (      11 calls)
     v_h          :      1.19s CPU      0.06s WALL (      11 calls)
     v_xc         :      6.29s CPU      0.28s WALL (      13 calls)
     newd         :     12.95s CPU      1.28s WALL (      11 calls)
     PAW_pot      :     18.20s CPU      0.80s WALL (      11 calls)
     mix_rho      :      1.43s CPU      0.06s WALL (      10 calls)

     Called by c_bands:
     init_us_2    :      2.69s CPU      0.22s WALL (     138 calls)
     cegterg      :    490.05s CPU     22.31s WALL (      60 calls)

     Called by sum_band:
     sum_band:wei :      0.12s CPU      0.00s WALL (      10 calls)
     sum_band:loo :     94.90s CPU      4.08s WALL (      10 calls)
     sum_band:buf :      0.21s CPU      0.01s WALL (      60 calls)
     sum_band:ini :      1.14s CPU      0.09s WALL (      60 calls)
     sum_band:cal :      6.29s CPU      0.28s WALL (      60 calls)
     sum_band:bec :      3.55s CPU      0.16s WALL (      60 calls)
     addusdens    :      5.02s CPU      1.18s WALL (      10 calls)
                                        0.00s GPU  (      10 calls)
     addusd:skk   :      0.22s CPU      0.01s WALL (      20 calls)
                                        0.00s GPU  (      20 calls)

     Called by *egterg:
     cdiaghg      :      2.74s CPU      0.19s WALL (     221 calls)
     cegterg:over :     18.20s CPU      0.81s WALL (     161 calls)
     cegterg:upda :     10.09s CPU      0.74s WALL (     161 calls)
     cegterg:last :      7.26s CPU      0.90s WALL (     117 calls)
     h_psi        :    418.98s CPU     18.05s WALL (     227 calls)
     s_psi        :     17.44s CPU      0.78s WALL (     227 calls)
     g_psi        :      6.36s CPU      0.29s WALL (     161 calls)

     Called by h_psi:
     h_psi:calbec :     15.98s CPU      0.73s WALL (     227 calls)
     vloc_psi     :    375.13s CPU     16.19s WALL (     227 calls)
     add_vuspsi   :     20.17s CPU      0.74s WALL (     227 calls)

     General routines
     calbec       :     24.83s CPU      1.14s WALL (     317 calls)
     fft          :      5.70s CPU      0.24s WALL (     166 calls)
     ffts         :      0.05s CPU      0.01s WALL (      21 calls)
     fftw         :     75.32s CPU      3.35s WALL (   11238 calls)
     interpolate  :      0.53s CPU      0.02s WALL (      11 calls)

     Parallel routines

     PAW routines
     PAW_pot      :     18.20s CPU      0.80s WALL (      11 calls)
     PAW_symme    :      0.00s CPU      0.00s WALL (      21 calls)

     PWSCF        :  11m 8.39s CPU     34.11s WALL


   This run was terminated on:   0:24:41  12Jun2024            

=------------------------------------------------------------------------------=
   JOB DONE.
=------------------------------------------------------------------------------=
