
     Program PWSCF v.7.3.1 starts on 14Jun2024 at 23:29:57 

     This program is part of the open-source Quantum ESPRESSO suite
     for quantum simulation of materials; please cite
         "P. Giannozzi et al., J. Phys.:Condens. Matter 21 395502 (2009);
         "P. Giannozzi et al., J. Phys.:Condens. Matter 29 465901 (2017);
         "P. Giannozzi et al., J. Chem. Phys. 152 154105 (2020);
          URL http://www.quantum-espresso.org", 
     in publications or presentations arising from this work. More details at
     http://www.quantum-espresso.org/quote

     Parallel version (MPI & OpenMP), running on      24 processor cores
     Number of MPI processes:                 1
     Threads/MPI process:                    24

     MPI processes distributed on     1 nodes
     4899 MiB available memory on the printing compute node when the environment starts

     Waiting for input...
     Reading input from standard input

     Current dimensions of program PWSCF are:
     Max number of different atomic species (ntypx) = 10
     Max number of k-points (npk) =  40000
     Max angular momentum in pseudopotentials (lmaxx) =  4
     file O.pbe-n-kjpaw_psl.0.1.UPF: wavefunction(s)  2P renormalized
     Message from routine setup:
     using ibrav=0 with symmetry is DISCOURAGED, use correct ibrav instead

     Subspace diagonalization in iterative solution of the eigenvalue problem:
     a serial algorithm will be used


     G-vector sticks info
     --------------------
     sticks:   dense  smooth     PW     G-vecs:    dense   smooth      PW
     Sum        1039     511    163                43253    15281    2615

     Using Slab Decomposition



     bravais-lattice index     =            0
     lattice parameter (alat)  =       6.1180  a.u.
     unit-cell volume          =     319.8198 (a.u.)^3
     number of atoms/cell      =            4
     number of atomic types    =            2
     number of electrons       =        52.00
     number of Kohn-Sham states=           31
     kinetic-energy cutoff     =      50.0000  Ry
     charge density cutoff     =     400.0000  Ry
     scf convergence threshold =      2.0E-08
     mixing beta               =       0.4000
     number of iterations used =            8  plain     mixing
     Exchange-correlation= SLA  PW   PBE  PBE
                           (   1   4   3   4   0   0   0)

     celldm(1)=   6.118013  celldm(2)=   0.000000  celldm(3)=   0.000000
     celldm(4)=   0.000000  celldm(5)=   0.000000  celldm(6)=   0.000000

     crystal axes: (cart. coord. in units of alat)
               a(1) = (   0.999950   0.000000   0.010000 )  
               a(2) = (  -0.499975   0.865982  -0.005000 )  
               a(3) = (   0.016130   0.000000   1.612985 )  

     reciprocal axes: (cart. coord. in units 2 pi/alat)
               b(1) = (  1.000150  0.577379 -0.010002 )  
               b(2) = (  0.000000  1.154758  0.000000 )  
               b(3) = ( -0.006200  0.000000  0.620030 )  


     PseudoPot. # 1 for O  read from file:
     ../SSSP_1.3.0_PBE_efficiency/O.pbe-n-kjpaw_psl.0.1.UPF
     MD5 check sum: 0234752ac141de4415c5fc33072bef88
     Pseudo is Projector augmented-wave + core cor, Zval =  6.0
     Generated using "atomic" code by A. Dal Corso  v.5.0.99 svn rev. 10869
     Shape of augmentation charge: BESSEL
     Using radial grid of 1095 points,  4 beta functions with: 
                l(1) =   0
                l(2) =   0
                l(3) =   1
                l(4) =   1
     Q(r) pseudized with 0 coefficients 


     PseudoPot. # 2 for Zn read from file:
     ../SSSP_1.3.0_PBE_efficiency/Zn_pbe_v1.uspp.F.UPF
     MD5 check sum: df62231357ef9e81f77b2b3087fa5675
     Pseudo is Ultrasoft, Zval = 20.0
     Generated by new atomic code, or converted to UPF format
     Using radial grid of  943 points,  6 beta functions with: 
                l(1) =   0
                l(2) =   0
                l(3) =   1
                l(4) =   1
                l(5) =   2
                l(6) =   2
     Q(r) pseudized with  8 coefficients,  rinner =    1.100   1.100   1.100
                                                       1.100   1.100

     atomic species   valence    mass     pseudopotential
     O                 6.00    15.99940     O ( 1.00)
     Zn               20.00    65.38000     Zn( 1.00)

      2 Sym. Ops. (no inversion) found ( 1 have fractional translation)


                                    s                        frac. trans.

      isym =  1     identity                                     

 cryst.   s( 1) = (     1          0          0      )
                  (     0          1          0      )
                  (     0          0          1      )

 cart.    s( 1) = (  1.0000000  0.0000000  0.0000000 )
                  (  0.0000000  1.0000000  0.0000000 )
                  (  0.0000000  0.0000000  1.0000000 )


      isym =  2     inv. 180 deg rotation - cart. axis [0,1,0]   

 cryst.   s( 2) = (     1          0          0      )    f =( -0.0000000 )
                  (    -1         -1          0      )       (  0.0000000 )
                  (     0          0          1      )       (  0.5000000 )

 cart.    s( 2) = (  1.0000000  0.0000000  0.0000000 )    f =(  0.0080649 )
                  (  0.0000000 -1.0000000  0.0000000 )       (  0.0000000 )
                  (  0.0000000  0.0000000  1.0000000 )       (  0.8064927 )


   Cartesian axes

     site n.     atom                  positions (alat units)
         1        Zn     tau(   1) = (   0.5080495   0.2886607   0.8124469  )
         2        Zn     tau(   2) = (   0.0000095   0.5773214   0.0009544  )
         3        O      tau(   3) = (   0.5141647   0.2886607   1.4239726  )
         4        O      tau(   4) = (   0.0061248   0.5773214   0.6124801  )

   Crystallographic axes

     site n.     atom                  positions (cryst. coord.)
         1        Zn     tau(   1) = (  0.6666667  0.3333333  0.5005917  )
         2        Zn     tau(   2) = (  0.3333333  0.6666667  0.0005917  )
         3        O      tau(   3) = (  0.6666667  0.3333333  0.8797183  )
         4        O      tau(   4) = (  0.3333333  0.6666667  0.3797183  )

     number of k points=   320  Marzari-Vanderbilt smearing, width (Ry)=  0.0147
                       cart. coord. in units 2pi/alat
        k(    1) = (   0.0000000   0.0000000   0.0000000), wk =   0.0017361
        k(    2) = (  -0.0007750   0.0000000   0.0775038), wk =   0.0034722
        k(    3) = (  -0.0015501   0.0000000   0.1550076), wk =   0.0034722
        k(    4) = (  -0.0023251   0.0000000   0.2325114), wk =   0.0034722
        k(    5) = (   0.0031002   0.0000000  -0.3100152), wk =   0.0017361
        k(    6) = (   0.0000000   0.0962299   0.0000000), wk =   0.0034722
        k(    7) = (  -0.0007750   0.0962299   0.0775038), wk =   0.0069444
        k(    8) = (  -0.0015501   0.0962299   0.1550076), wk =   0.0069444
        k(    9) = (  -0.0023251   0.0962299   0.2325114), wk =   0.0069444
        k(   10) = (   0.0031002   0.0962299  -0.3100152), wk =   0.0034722
        k(   11) = (   0.0000000   0.1924597   0.0000000), wk =   0.0034722
        k(   12) = (  -0.0007750   0.1924597   0.0775038), wk =   0.0069444
        k(   13) = (  -0.0015501   0.1924597   0.1550076), wk =   0.0069444
        k(   14) = (  -0.0023251   0.1924597   0.2325114), wk =   0.0069444
        k(   15) = (   0.0031002   0.1924597  -0.3100152), wk =   0.0034722
        k(   16) = (   0.0000000   0.2886896   0.0000000), wk =   0.0034722
        k(   17) = (  -0.0007750   0.2886896   0.0775038), wk =   0.0069444
        k(   18) = (  -0.0015501   0.2886896   0.1550076), wk =   0.0069444
        k(   19) = (  -0.0023251   0.2886896   0.2325114), wk =   0.0069444
        k(   20) = (   0.0031002   0.2886896  -0.3100152), wk =   0.0034722
        k(   21) = (   0.0000000   0.3849194   0.0000000), wk =   0.0034722
        k(   22) = (  -0.0007750   0.3849194   0.0775038), wk =   0.0069444
        k(   23) = (  -0.0015501   0.3849194   0.1550076), wk =   0.0069444
        k(   24) = (  -0.0023251   0.3849194   0.2325114), wk =   0.0069444
        k(   25) = (   0.0031002   0.3849194  -0.3100152), wk =   0.0034722
        k(   26) = (   0.0000000   0.4811493   0.0000000), wk =   0.0034722
        k(   27) = (  -0.0007750   0.4811493   0.0775038), wk =   0.0069444
        k(   28) = (  -0.0015501   0.4811493   0.1550076), wk =   0.0069444
        k(   29) = (  -0.0023251   0.4811493   0.2325114), wk =   0.0069444
        k(   30) = (   0.0031002   0.4811493  -0.3100152), wk =   0.0034722
        k(   31) = (   0.0000000  -0.5773791   0.0000000), wk =   0.0017361
        k(   32) = (  -0.0007750  -0.5773791   0.0775038), wk =   0.0034722
        k(   33) = (  -0.0015501  -0.5773791   0.1550076), wk =   0.0034722
        k(   34) = (  -0.0023251  -0.5773791   0.2325114), wk =   0.0034722
        k(   35) = (   0.0031002  -0.5773791  -0.3100152), wk =   0.0017361
        k(   36) = (   0.0833458   0.0481149  -0.0008335), wk =   0.0069444
        k(   37) = (   0.0825708   0.0481149   0.0766703), wk =   0.0069444
        k(   38) = (   0.0817958   0.0481149   0.1541741), wk =   0.0069444
        k(   39) = (   0.0810207   0.0481149   0.2316779), wk =   0.0069444
        k(   40) = (   0.0864460   0.0481149  -0.3108486), wk =   0.0069444
        k(   41) = (   0.0856709   0.0481149  -0.2333449), wk =   0.0069444
        k(   42) = (   0.0848959   0.0481149  -0.1558411), wk =   0.0069444
        k(   43) = (   0.0841209   0.0481149  -0.0783373), wk =   0.0069444
        k(   44) = (   0.0833458   0.1443448  -0.0008335), wk =   0.0069444
        k(   45) = (   0.0825708   0.1443448   0.0766703), wk =   0.0069444
        k(   46) = (   0.0817958   0.1443448   0.1541741), wk =   0.0069444
        k(   47) = (   0.0810207   0.1443448   0.2316779), wk =   0.0069444
        k(   48) = (   0.0864460   0.1443448  -0.3108486), wk =   0.0069444
        k(   49) = (   0.0856709   0.1443448  -0.2333449), wk =   0.0069444
        k(   50) = (   0.0848959   0.1443448  -0.1558411), wk =   0.0069444
        k(   51) = (   0.0841209   0.1443448  -0.0783373), wk =   0.0069444
        k(   52) = (   0.0833458   0.2405746  -0.0008335), wk =   0.0069444
        k(   53) = (   0.0825708   0.2405746   0.0766703), wk =   0.0069444
        k(   54) = (   0.0817958   0.2405746   0.1541741), wk =   0.0069444
        k(   55) = (   0.0810207   0.2405746   0.2316779), wk =   0.0069444
        k(   56) = (   0.0864460   0.2405746  -0.3108486), wk =   0.0069444
        k(   57) = (   0.0856709   0.2405746  -0.2333449), wk =   0.0069444
        k(   58) = (   0.0848959   0.2405746  -0.1558411), wk =   0.0069444
        k(   59) = (   0.0841209   0.2405746  -0.0783373), wk =   0.0069444
        k(   60) = (   0.0833458   0.3368045  -0.0008335), wk =   0.0069444
        k(   61) = (   0.0825708   0.3368045   0.0766703), wk =   0.0069444
        k(   62) = (   0.0817958   0.3368045   0.1541741), wk =   0.0069444
        k(   63) = (   0.0810207   0.3368045   0.2316779), wk =   0.0069444
        k(   64) = (   0.0864460   0.3368045  -0.3108486), wk =   0.0069444
        k(   65) = (   0.0856709   0.3368045  -0.2333449), wk =   0.0069444
        k(   66) = (   0.0848959   0.3368045  -0.1558411), wk =   0.0069444
        k(   67) = (   0.0841209   0.3368045  -0.0783373), wk =   0.0069444
        k(   68) = (   0.0833458   0.4330344  -0.0008335), wk =   0.0069444
        k(   69) = (   0.0825708   0.4330344   0.0766703), wk =   0.0069444
        k(   70) = (   0.0817958   0.4330344   0.1541741), wk =   0.0069444
        k(   71) = (   0.0810207   0.4330344   0.2316779), wk =   0.0069444
        k(   72) = (   0.0864460   0.4330344  -0.3108486), wk =   0.0069444
        k(   73) = (   0.0856709   0.4330344  -0.2333449), wk =   0.0069444
        k(   74) = (   0.0848959   0.4330344  -0.1558411), wk =   0.0069444
        k(   75) = (   0.0841209   0.4330344  -0.0783373), wk =   0.0069444
        k(   76) = (   0.0833458   0.5292642  -0.0008335), wk =   0.0069444
        k(   77) = (   0.0825708   0.5292642   0.0766703), wk =   0.0069444
        k(   78) = (   0.0817958   0.5292642   0.1541741), wk =   0.0069444
        k(   79) = (   0.0810207   0.5292642   0.2316779), wk =   0.0069444
        k(   80) = (   0.0864460   0.5292642  -0.3108486), wk =   0.0069444
        k(   81) = (   0.0856709   0.5292642  -0.2333449), wk =   0.0069444
        k(   82) = (   0.0848959   0.5292642  -0.1558411), wk =   0.0069444
        k(   83) = (   0.0841209   0.5292642  -0.0783373), wk =   0.0069444
        k(   84) = (   0.1666917   0.0962299  -0.0016669), wk =   0.0069444
        k(   85) = (   0.1659166   0.0962299   0.0758369), wk =   0.0069444
        k(   86) = (   0.1651416   0.0962299   0.1533407), wk =   0.0069444
        k(   87) = (   0.1643666   0.0962299   0.2308445), wk =   0.0069444
        k(   88) = (   0.1697918   0.0962299  -0.3116821), wk =   0.0069444
        k(   89) = (   0.1690168   0.0962299  -0.2341783), wk =   0.0069444
        k(   90) = (   0.1682417   0.0962299  -0.1566745), wk =   0.0069444
        k(   91) = (   0.1674667   0.0962299  -0.0791707), wk =   0.0069444
        k(   92) = (   0.1666917   0.1924597  -0.0016669), wk =   0.0069444
        k(   93) = (   0.1659166   0.1924597   0.0758369), wk =   0.0069444
        k(   94) = (   0.1651416   0.1924597   0.1533407), wk =   0.0069444
        k(   95) = (   0.1643666   0.1924597   0.2308445), wk =   0.0069444
        k(   96) = (   0.1697918   0.1924597  -0.3116821), wk =   0.0069444
        k(   97) = (   0.1690168   0.1924597  -0.2341783), wk =   0.0069444
        k(   98) = (   0.1682417   0.1924597  -0.1566745), wk =   0.0069444
        k(   99) = (   0.1674667   0.1924597  -0.0791707), wk =   0.0069444
        k(  100) = (   0.1666917   0.2886896  -0.0016669), wk =   0.0069444
        k(  101) = (   0.1659166   0.2886896   0.0758369), wk =   0.0069444
        k(  102) = (   0.1651416   0.2886896   0.1533407), wk =   0.0069444
        k(  103) = (   0.1643666   0.2886896   0.2308445), wk =   0.0069444
        k(  104) = (   0.1697918   0.2886896  -0.3116821), wk =   0.0069444
        k(  105) = (   0.1690168   0.2886896  -0.2341783), wk =   0.0069444
        k(  106) = (   0.1682417   0.2886896  -0.1566745), wk =   0.0069444
        k(  107) = (   0.1674667   0.2886896  -0.0791707), wk =   0.0069444
        k(  108) = (   0.1666917   0.3849194  -0.0016669), wk =   0.0069444
        k(  109) = (   0.1659166   0.3849194   0.0758369), wk =   0.0069444
        k(  110) = (   0.1651416   0.3849194   0.1533407), wk =   0.0069444
        k(  111) = (   0.1643666   0.3849194   0.2308445), wk =   0.0069444
        k(  112) = (   0.1697918   0.3849194  -0.3116821), wk =   0.0069444
        k(  113) = (   0.1690168   0.3849194  -0.2341783), wk =   0.0069444
        k(  114) = (   0.1682417   0.3849194  -0.1566745), wk =   0.0069444
        k(  115) = (   0.1674667   0.3849194  -0.0791707), wk =   0.0069444
        k(  116) = (   0.1666917   0.4811493  -0.0016669), wk =   0.0069444
        k(  117) = (   0.1659166   0.4811493   0.0758369), wk =   0.0069444
        k(  118) = (   0.1651416   0.4811493   0.1533407), wk =   0.0069444
        k(  119) = (   0.1643666   0.4811493   0.2308445), wk =   0.0069444
        k(  120) = (   0.1697918   0.4811493  -0.3116821), wk =   0.0069444
        k(  121) = (   0.1690168   0.4811493  -0.2341783), wk =   0.0069444
        k(  122) = (   0.1682417   0.4811493  -0.1566745), wk =   0.0069444
        k(  123) = (   0.1674667   0.4811493  -0.0791707), wk =   0.0069444
        k(  124) = (   0.1666917   0.5773791  -0.0016669), wk =   0.0034722
        k(  125) = (   0.1659166   0.5773791   0.0758369), wk =   0.0034722
        k(  126) = (   0.1651416   0.5773791   0.1533407), wk =   0.0034722
        k(  127) = (   0.1643666   0.5773791   0.2308445), wk =   0.0034722
        k(  128) = (   0.1697918   0.5773791  -0.3116821), wk =   0.0034722
        k(  129) = (   0.1690168   0.5773791  -0.2341783), wk =   0.0034722
        k(  130) = (   0.1682417   0.5773791  -0.1566745), wk =   0.0034722
        k(  131) = (   0.1674667   0.5773791  -0.0791707), wk =   0.0034722
        k(  132) = (   0.1666917  -0.0000000  -0.0016669), wk =   0.0034722
        k(  133) = (   0.1659166  -0.0000000   0.0758369), wk =   0.0034722
        k(  134) = (   0.1651416  -0.0000000   0.1533407), wk =   0.0034722
        k(  135) = (   0.1643666  -0.0000000   0.2308445), wk =   0.0034722
        k(  136) = (   0.1697918  -0.0000000  -0.3116821), wk =   0.0034722
        k(  137) = (   0.1690168  -0.0000000  -0.2341783), wk =   0.0034722
        k(  138) = (   0.1682417  -0.0000000  -0.1566745), wk =   0.0034722
        k(  139) = (   0.1674667  -0.0000000  -0.0791707), wk =   0.0034722
        k(  140) = (   0.2500375   0.1443448  -0.0025004), wk =   0.0069444
        k(  141) = (   0.2492625   0.1443448   0.0750034), wk =   0.0069444
        k(  142) = (   0.2484874   0.1443448   0.1525072), wk =   0.0069444
        k(  143) = (   0.2477124   0.1443448   0.2300110), wk =   0.0069444
        k(  144) = (   0.2531377   0.1443448  -0.3125156), wk =   0.0069444
        k(  145) = (   0.2523626   0.1443448  -0.2350118), wk =   0.0069444
        k(  146) = (   0.2515876   0.1443448  -0.1575080), wk =   0.0069444
        k(  147) = (   0.2508125   0.1443448  -0.0800042), wk =   0.0069444
        k(  148) = (   0.2500375   0.2405746  -0.0025004), wk =   0.0069444
        k(  149) = (   0.2492625   0.2405746   0.0750034), wk =   0.0069444
        k(  150) = (   0.2484874   0.2405746   0.1525072), wk =   0.0069444
        k(  151) = (   0.2477124   0.2405746   0.2300110), wk =   0.0069444
        k(  152) = (   0.2531377   0.2405746  -0.3125156), wk =   0.0069444
        k(  153) = (   0.2523626   0.2405746  -0.2350118), wk =   0.0069444
        k(  154) = (   0.2515876   0.2405746  -0.1575080), wk =   0.0069444
        k(  155) = (   0.2508125   0.2405746  -0.0800042), wk =   0.0069444
        k(  156) = (   0.2500375   0.3368045  -0.0025004), wk =   0.0069444
        k(  157) = (   0.2492625   0.3368045   0.0750034), wk =   0.0069444
        k(  158) = (   0.2484874   0.3368045   0.1525072), wk =   0.0069444
        k(  159) = (   0.2477124   0.3368045   0.2300110), wk =   0.0069444
        k(  160) = (   0.2531377   0.3368045  -0.3125156), wk =   0.0069444
        k(  161) = (   0.2523626   0.3368045  -0.2350118), wk =   0.0069444
        k(  162) = (   0.2515876   0.3368045  -0.1575080), wk =   0.0069444
        k(  163) = (   0.2508125   0.3368045  -0.0800042), wk =   0.0069444
        k(  164) = (   0.2500375   0.4330344  -0.0025004), wk =   0.0069444
        k(  165) = (   0.2492625   0.4330344   0.0750034), wk =   0.0069444
        k(  166) = (   0.2484874   0.4330344   0.1525072), wk =   0.0069444
        k(  167) = (   0.2477124   0.4330344   0.2300110), wk =   0.0069444
        k(  168) = (   0.2531377   0.4330344  -0.3125156), wk =   0.0069444
        k(  169) = (   0.2523626   0.4330344  -0.2350118), wk =   0.0069444
        k(  170) = (   0.2515876   0.4330344  -0.1575080), wk =   0.0069444
        k(  171) = (   0.2508125   0.4330344  -0.0800042), wk =   0.0069444
        k(  172) = (   0.2500375   0.5292642  -0.0025004), wk =   0.0069444
        k(  173) = (   0.2492625   0.5292642   0.0750034), wk =   0.0069444
        k(  174) = (   0.2484874   0.5292642   0.1525072), wk =   0.0069444
        k(  175) = (   0.2477124   0.5292642   0.2300110), wk =   0.0069444
        k(  176) = (   0.2531377   0.5292642  -0.3125156), wk =   0.0069444
        k(  177) = (   0.2523626   0.5292642  -0.2350118), wk =   0.0069444
        k(  178) = (   0.2515876   0.5292642  -0.1575080), wk =   0.0069444
        k(  179) = (   0.2508125   0.5292642  -0.0800042), wk =   0.0069444
        k(  180) = (   0.2500375  -0.0481149  -0.0025004), wk =   0.0069444
        k(  181) = (   0.2492625  -0.0481149   0.0750034), wk =   0.0069444
        k(  182) = (   0.2484874  -0.0481149   0.1525072), wk =   0.0069444
        k(  183) = (   0.2477124  -0.0481149   0.2300110), wk =   0.0069444
        k(  184) = (   0.2531377  -0.0481149  -0.3125156), wk =   0.0069444
        k(  185) = (   0.2523626  -0.0481149  -0.2350118), wk =   0.0069444
        k(  186) = (   0.2515876  -0.0481149  -0.1575080), wk =   0.0069444
        k(  187) = (   0.2508125  -0.0481149  -0.0800042), wk =   0.0069444
        k(  188) = (   0.3333833   0.1924597  -0.0033338), wk =   0.0069444
        k(  189) = (   0.3326083   0.1924597   0.0741700), wk =   0.0069444
        k(  190) = (   0.3318333   0.1924597   0.1516738), wk =   0.0069444
        k(  191) = (   0.3310582   0.1924597   0.2291776), wk =   0.0069444
        k(  192) = (   0.3364835   0.1924597  -0.3133490), wk =   0.0069444
        k(  193) = (   0.3357085   0.1924597  -0.2358452), wk =   0.0069444
        k(  194) = (   0.3349334   0.1924597  -0.1583414), wk =   0.0069444
        k(  195) = (   0.3341584   0.1924597  -0.0808376), wk =   0.0069444
        k(  196) = (   0.3333833   0.2886896  -0.0033338), wk =   0.0069444
        k(  197) = (   0.3326083   0.2886896   0.0741700), wk =   0.0069444
        k(  198) = (   0.3318333   0.2886896   0.1516738), wk =   0.0069444
        k(  199) = (   0.3310582   0.2886896   0.2291776), wk =   0.0069444
        k(  200) = (   0.3364835   0.2886896  -0.3133490), wk =   0.0069444
        k(  201) = (   0.3357085   0.2886896  -0.2358452), wk =   0.0069444
        k(  202) = (   0.3349334   0.2886896  -0.1583414), wk =   0.0069444
        k(  203) = (   0.3341584   0.2886896  -0.0808376), wk =   0.0069444
        k(  204) = (   0.3333833   0.3849194  -0.0033338), wk =   0.0069444
        k(  205) = (   0.3326083   0.3849194   0.0741700), wk =   0.0069444
        k(  206) = (   0.3318333   0.3849194   0.1516738), wk =   0.0069444
        k(  207) = (   0.3310582   0.3849194   0.2291776), wk =   0.0069444
        k(  208) = (   0.3364835   0.3849194  -0.3133490), wk =   0.0069444
        k(  209) = (   0.3357085   0.3849194  -0.2358452), wk =   0.0069444
        k(  210) = (   0.3349334   0.3849194  -0.1583414), wk =   0.0069444
        k(  211) = (   0.3341584   0.3849194  -0.0808376), wk =   0.0069444
        k(  212) = (   0.3333833   0.4811493  -0.0033338), wk =   0.0069444
        k(  213) = (   0.3326083   0.4811493   0.0741700), wk =   0.0069444
        k(  214) = (   0.3318333   0.4811493   0.1516738), wk =   0.0069444
        k(  215) = (   0.3310582   0.4811493   0.2291776), wk =   0.0069444
        k(  216) = (   0.3364835   0.4811493  -0.3133490), wk =   0.0069444
        k(  217) = (   0.3357085   0.4811493  -0.2358452), wk =   0.0069444
        k(  218) = (   0.3349334   0.4811493  -0.1583414), wk =   0.0069444
        k(  219) = (   0.3341584   0.4811493  -0.0808376), wk =   0.0069444
        k(  220) = (   0.3333833   0.5773791  -0.0033338), wk =   0.0034722
        k(  221) = (   0.3326083   0.5773791   0.0741700), wk =   0.0034722
        k(  222) = (   0.3318333   0.5773791   0.1516738), wk =   0.0034722
        k(  223) = (   0.3310582   0.5773791   0.2291776), wk =   0.0034722
        k(  224) = (   0.3364835   0.5773791  -0.3133490), wk =   0.0034722
        k(  225) = (   0.3357085   0.5773791  -0.2358452), wk =   0.0034722
        k(  226) = (   0.3349334   0.5773791  -0.1583414), wk =   0.0034722
        k(  227) = (   0.3341584   0.5773791  -0.0808376), wk =   0.0034722
        k(  228) = (   0.3333833  -0.0962299  -0.0033338), wk =   0.0069444
        k(  229) = (   0.3326083  -0.0962299   0.0741700), wk =   0.0069444
        k(  230) = (   0.3318333  -0.0962299   0.1516738), wk =   0.0069444
        k(  231) = (   0.3310582  -0.0962299   0.2291776), wk =   0.0069444
        k(  232) = (   0.3364835  -0.0962299  -0.3133490), wk =   0.0069444
        k(  233) = (   0.3357085  -0.0962299  -0.2358452), wk =   0.0069444
        k(  234) = (   0.3349334  -0.0962299  -0.1583414), wk =   0.0069444
        k(  235) = (   0.3341584  -0.0962299  -0.0808376), wk =   0.0069444
        k(  236) = (   0.3333833   0.0000000  -0.0033338), wk =   0.0034722
        k(  237) = (   0.3326083   0.0000000   0.0741700), wk =   0.0034722
        k(  238) = (   0.3318333   0.0000000   0.1516738), wk =   0.0034722
        k(  239) = (   0.3310582   0.0000000   0.2291776), wk =   0.0034722
        k(  240) = (   0.3364835   0.0000000  -0.3133490), wk =   0.0034722
        k(  241) = (   0.3357085   0.0000000  -0.2358452), wk =   0.0034722
        k(  242) = (   0.3349334   0.0000000  -0.1583414), wk =   0.0034722
        k(  243) = (   0.3341584   0.0000000  -0.0808376), wk =   0.0034722
        k(  244) = (   0.4167292   0.2405746  -0.0041673), wk =   0.0069444
        k(  245) = (   0.4159541   0.2405746   0.0733365), wk =   0.0069444
        k(  246) = (   0.4151791   0.2405746   0.1508403), wk =   0.0069444
        k(  247) = (   0.4144041   0.2405746   0.2283441), wk =   0.0069444
        k(  248) = (   0.4198293   0.2405746  -0.3141825), wk =   0.0069444
        k(  249) = (   0.4190543   0.2405746  -0.2366787), wk =   0.0069444
        k(  250) = (   0.4182792   0.2405746  -0.1591749), wk =   0.0069444
        k(  251) = (   0.4175042   0.2405746  -0.0816711), wk =   0.0069444
        k(  252) = (   0.4167292   0.3368045  -0.0041673), wk =   0.0069444
        k(  253) = (   0.4159541   0.3368045   0.0733365), wk =   0.0069444
        k(  254) = (   0.4151791   0.3368045   0.1508403), wk =   0.0069444
        k(  255) = (   0.4144041   0.3368045   0.2283441), wk =   0.0069444
        k(  256) = (   0.4198293   0.3368045  -0.3141825), wk =   0.0069444
        k(  257) = (   0.4190543   0.3368045  -0.2366787), wk =   0.0069444
        k(  258) = (   0.4182792   0.3368045  -0.1591749), wk =   0.0069444
        k(  259) = (   0.4175042   0.3368045  -0.0816711), wk =   0.0069444
        k(  260) = (   0.4167292   0.4330344  -0.0041673), wk =   0.0069444
        k(  261) = (   0.4159541   0.4330344   0.0733365), wk =   0.0069444
        k(  262) = (   0.4151791   0.4330344   0.1508403), wk =   0.0069444
        k(  263) = (   0.4144041   0.4330344   0.2283441), wk =   0.0069444
        k(  264) = (   0.4198293   0.4330344  -0.3141825), wk =   0.0069444
        k(  265) = (   0.4190543   0.4330344  -0.2366787), wk =   0.0069444
        k(  266) = (   0.4182792   0.4330344  -0.1591749), wk =   0.0069444
        k(  267) = (   0.4175042   0.4330344  -0.0816711), wk =   0.0069444
        k(  268) = (   0.4167292   0.5292642  -0.0041673), wk =   0.0069444
        k(  269) = (   0.4159541   0.5292642   0.0733365), wk =   0.0069444
        k(  270) = (   0.4151791   0.5292642   0.1508403), wk =   0.0069444
        k(  271) = (   0.4144041   0.5292642   0.2283441), wk =   0.0069444
        k(  272) = (   0.4198293   0.5292642  -0.3141825), wk =   0.0069444
        k(  273) = (   0.4190543   0.5292642  -0.2366787), wk =   0.0069444
        k(  274) = (   0.4182792   0.5292642  -0.1591749), wk =   0.0069444
        k(  275) = (   0.4175042   0.5292642  -0.0816711), wk =   0.0069444
        k(  276) = (   0.4167292  -0.1443448  -0.0041673), wk =   0.0069444
        k(  277) = (   0.4159541  -0.1443448   0.0733365), wk =   0.0069444
        k(  278) = (   0.4151791  -0.1443448   0.1508403), wk =   0.0069444
        k(  279) = (   0.4144041  -0.1443448   0.2283441), wk =   0.0069444
        k(  280) = (   0.4198293  -0.1443448  -0.3141825), wk =   0.0069444
        k(  281) = (   0.4190543  -0.1443448  -0.2366787), wk =   0.0069444
        k(  282) = (   0.4182792  -0.1443448  -0.1591749), wk =   0.0069444
        k(  283) = (   0.4175042  -0.1443448  -0.0816711), wk =   0.0069444
        k(  284) = (   0.4167292  -0.0481149  -0.0041673), wk =   0.0069444
        k(  285) = (   0.4159541  -0.0481149   0.0733365), wk =   0.0069444
        k(  286) = (   0.4151791  -0.0481149   0.1508403), wk =   0.0069444
        k(  287) = (   0.4144041  -0.0481149   0.2283441), wk =   0.0069444
        k(  288) = (   0.4198293  -0.0481149  -0.3141825), wk =   0.0069444
        k(  289) = (   0.4190543  -0.0481149  -0.2366787), wk =   0.0069444
        k(  290) = (   0.4182792  -0.0481149  -0.1591749), wk =   0.0069444
        k(  291) = (   0.4175042  -0.0481149  -0.0816711), wk =   0.0069444
        k(  292) = (  -0.5000750  -0.2886896   0.0050008), wk =   0.0034722
        k(  293) = (  -0.5008500  -0.2886896   0.0825045), wk =   0.0069444
        k(  294) = (  -0.5016251  -0.2886896   0.1600083), wk =   0.0069444
        k(  295) = (  -0.5024001  -0.2886896   0.2375121), wk =   0.0069444
        k(  296) = (  -0.4969749  -0.2886896  -0.3050144), wk =   0.0034722
        k(  297) = (  -0.5000750  -0.1924597   0.0050008), wk =   0.0069444
        k(  298) = (  -0.5008500  -0.1924597   0.0825045), wk =   0.0069444
        k(  299) = (  -0.5016251  -0.1924597   0.1600083), wk =   0.0069444
        k(  300) = (  -0.5024001  -0.1924597   0.2375121), wk =   0.0069444
        k(  301) = (  -0.4969749  -0.1924597  -0.3050144), wk =   0.0069444
        k(  302) = (  -0.4977499  -0.1924597  -0.2275106), wk =   0.0069444
        k(  303) = (  -0.4985249  -0.1924597  -0.1500068), wk =   0.0069444
        k(  304) = (  -0.4993000  -0.1924597  -0.0725030), wk =   0.0069444
        k(  305) = (  -0.5000750  -0.0962299   0.0050008), wk =   0.0069444
        k(  306) = (  -0.5008500  -0.0962299   0.0825045), wk =   0.0069444
        k(  307) = (  -0.5016251  -0.0962299   0.1600083), wk =   0.0069444
        k(  308) = (  -0.5024001  -0.0962299   0.2375121), wk =   0.0069444
        k(  309) = (  -0.4969749  -0.0962299  -0.3050144), wk =   0.0069444
        k(  310) = (  -0.4977499  -0.0962299  -0.2275106), wk =   0.0069444
        k(  311) = (  -0.4985249  -0.0962299  -0.1500068), wk =   0.0069444
        k(  312) = (  -0.4993000  -0.0962299  -0.0725030), wk =   0.0069444
        k(  313) = (  -0.5000750   0.0000000   0.0050008), wk =   0.0034722
        k(  314) = (  -0.5008500   0.0000000   0.0825045), wk =   0.0034722
        k(  315) = (  -0.5016251   0.0000000   0.1600083), wk =   0.0034722
        k(  316) = (  -0.5024001   0.0000000   0.2375121), wk =   0.0034722
        k(  317) = (  -0.4969749   0.0000000  -0.3050144), wk =   0.0034722
        k(  318) = (  -0.4977499   0.0000000  -0.2275106), wk =   0.0034722
        k(  319) = (  -0.4985249   0.0000000  -0.1500068), wk =   0.0034722
        k(  320) = (  -0.4993000   0.0000000  -0.0725030), wk =   0.0034722

                       cryst. coord.
        k(    1) = (   0.0000000   0.0000000   0.0000000), wk =   0.0017361
        k(    2) = (   0.0000000   0.0000000   0.1250000), wk =   0.0034722
        k(    3) = (   0.0000000   0.0000000   0.2500000), wk =   0.0034722
        k(    4) = (   0.0000000   0.0000000   0.3750000), wk =   0.0034722
        k(    5) = (   0.0000000   0.0000000  -0.5000000), wk =   0.0017361
        k(    6) = (   0.0000000   0.0833333   0.0000000), wk =   0.0034722
        k(    7) = (   0.0000000   0.0833333   0.1250000), wk =   0.0069444
        k(    8) = (   0.0000000   0.0833333   0.2500000), wk =   0.0069444
        k(    9) = (   0.0000000   0.0833333   0.3750000), wk =   0.0069444
        k(   10) = (   0.0000000   0.0833333  -0.5000000), wk =   0.0034722
        k(   11) = (   0.0000000   0.1666667   0.0000000), wk =   0.0034722
        k(   12) = (   0.0000000   0.1666667   0.1250000), wk =   0.0069444
        k(   13) = (   0.0000000   0.1666667   0.2500000), wk =   0.0069444
        k(   14) = (   0.0000000   0.1666667   0.3750000), wk =   0.0069444
        k(   15) = (   0.0000000   0.1666667  -0.5000000), wk =   0.0034722
        k(   16) = (   0.0000000   0.2500000   0.0000000), wk =   0.0034722
        k(   17) = (   0.0000000   0.2500000   0.1250000), wk =   0.0069444
        k(   18) = (   0.0000000   0.2500000   0.2500000), wk =   0.0069444
        k(   19) = (   0.0000000   0.2500000   0.3750000), wk =   0.0069444
        k(   20) = (   0.0000000   0.2500000  -0.5000000), wk =   0.0034722
        k(   21) = (   0.0000000   0.3333333   0.0000000), wk =   0.0034722
        k(   22) = (   0.0000000   0.3333333   0.1250000), wk =   0.0069444
        k(   23) = (   0.0000000   0.3333333   0.2500000), wk =   0.0069444
        k(   24) = (   0.0000000   0.3333333   0.3750000), wk =   0.0069444
        k(   25) = (   0.0000000   0.3333333  -0.5000000), wk =   0.0034722
        k(   26) = (   0.0000000   0.4166667   0.0000000), wk =   0.0034722
        k(   27) = (   0.0000000   0.4166667   0.1250000), wk =   0.0069444
        k(   28) = (   0.0000000   0.4166667   0.2500000), wk =   0.0069444
        k(   29) = (   0.0000000   0.4166667   0.3750000), wk =   0.0069444
        k(   30) = (   0.0000000   0.4166667  -0.5000000), wk =   0.0034722
        k(   31) = (   0.0000000  -0.5000000   0.0000000), wk =   0.0017361
        k(   32) = (   0.0000000  -0.5000000   0.1250000), wk =   0.0034722
        k(   33) = (   0.0000000  -0.5000000   0.2500000), wk =   0.0034722
        k(   34) = (   0.0000000  -0.5000000   0.3750000), wk =   0.0034722
        k(   35) = (   0.0000000  -0.5000000  -0.5000000), wk =   0.0017361
        k(   36) = (   0.0833333   0.0000000   0.0000000), wk =   0.0069444
        k(   37) = (   0.0833333   0.0000000   0.1250000), wk =   0.0069444
        k(   38) = (   0.0833333   0.0000000   0.2500000), wk =   0.0069444
        k(   39) = (   0.0833333   0.0000000   0.3750000), wk =   0.0069444
        k(   40) = (   0.0833333  -0.0000000  -0.5000000), wk =   0.0069444
        k(   41) = (   0.0833333   0.0000000  -0.3750000), wk =   0.0069444
        k(   42) = (   0.0833333   0.0000000  -0.2500000), wk =   0.0069444
        k(   43) = (   0.0833333   0.0000000  -0.1250000), wk =   0.0069444
        k(   44) = (   0.0833333   0.0833333   0.0000000), wk =   0.0069444
        k(   45) = (   0.0833333   0.0833333   0.1250000), wk =   0.0069444
        k(   46) = (   0.0833333   0.0833333   0.2500000), wk =   0.0069444
        k(   47) = (   0.0833333   0.0833333   0.3750000), wk =   0.0069444
        k(   48) = (   0.0833333   0.0833333  -0.5000000), wk =   0.0069444
        k(   49) = (   0.0833333   0.0833333  -0.3750000), wk =   0.0069444
        k(   50) = (   0.0833333   0.0833333  -0.2500000), wk =   0.0069444
        k(   51) = (   0.0833333   0.0833333  -0.1250000), wk =   0.0069444
        k(   52) = (   0.0833333   0.1666667   0.0000000), wk =   0.0069444
        k(   53) = (   0.0833333   0.1666667   0.1250000), wk =   0.0069444
        k(   54) = (   0.0833333   0.1666667   0.2500000), wk =   0.0069444
        k(   55) = (   0.0833333   0.1666667   0.3750000), wk =   0.0069444
        k(   56) = (   0.0833333   0.1666667  -0.5000000), wk =   0.0069444
        k(   57) = (   0.0833333   0.1666667  -0.3750000), wk =   0.0069444
        k(   58) = (   0.0833333   0.1666667  -0.2500000), wk =   0.0069444
        k(   59) = (   0.0833333   0.1666667  -0.1250000), wk =   0.0069444
        k(   60) = (   0.0833333   0.2500000   0.0000000), wk =   0.0069444
        k(   61) = (   0.0833333   0.2500000   0.1250000), wk =   0.0069444
        k(   62) = (   0.0833333   0.2500000   0.2500000), wk =   0.0069444
        k(   63) = (   0.0833333   0.2500000   0.3750000), wk =   0.0069444
        k(   64) = (   0.0833333   0.2500000  -0.5000000), wk =   0.0069444
        k(   65) = (   0.0833333   0.2500000  -0.3750000), wk =   0.0069444
        k(   66) = (   0.0833333   0.2500000  -0.2500000), wk =   0.0069444
        k(   67) = (   0.0833333   0.2500000  -0.1250000), wk =   0.0069444
        k(   68) = (   0.0833333   0.3333333   0.0000000), wk =   0.0069444
        k(   69) = (   0.0833333   0.3333333   0.1250000), wk =   0.0069444
        k(   70) = (   0.0833333   0.3333333   0.2500000), wk =   0.0069444
        k(   71) = (   0.0833333   0.3333333   0.3750000), wk =   0.0069444
        k(   72) = (   0.0833333   0.3333333  -0.5000000), wk =   0.0069444
        k(   73) = (   0.0833333   0.3333333  -0.3750000), wk =   0.0069444
        k(   74) = (   0.0833333   0.3333333  -0.2500000), wk =   0.0069444
        k(   75) = (   0.0833333   0.3333333  -0.1250000), wk =   0.0069444
        k(   76) = (   0.0833333   0.4166667   0.0000000), wk =   0.0069444
        k(   77) = (   0.0833333   0.4166667   0.1250000), wk =   0.0069444
        k(   78) = (   0.0833333   0.4166667   0.2500000), wk =   0.0069444
        k(   79) = (   0.0833333   0.4166667   0.3750000), wk =   0.0069444
        k(   80) = (   0.0833333   0.4166667  -0.5000000), wk =   0.0069444
        k(   81) = (   0.0833333   0.4166667  -0.3750000), wk =   0.0069444
        k(   82) = (   0.0833333   0.4166667  -0.2500000), wk =   0.0069444
        k(   83) = (   0.0833333   0.4166667  -0.1250000), wk =   0.0069444
        k(   84) = (   0.1666667   0.0000000   0.0000000), wk =   0.0069444
        k(   85) = (   0.1666667  -0.0000000   0.1250000), wk =   0.0069444
        k(   86) = (   0.1666667   0.0000000   0.2500000), wk =   0.0069444
        k(   87) = (   0.1666667   0.0000000   0.3750000), wk =   0.0069444
        k(   88) = (   0.1666667   0.0000000  -0.5000000), wk =   0.0069444
        k(   89) = (   0.1666667  -0.0000000  -0.3750000), wk =   0.0069444
        k(   90) = (   0.1666667   0.0000000  -0.2500000), wk =   0.0069444
        k(   91) = (   0.1666667   0.0000000  -0.1250000), wk =   0.0069444
        k(   92) = (   0.1666667   0.0833333   0.0000000), wk =   0.0069444
        k(   93) = (   0.1666667   0.0833333   0.1250000), wk =   0.0069444
        k(   94) = (   0.1666667   0.0833333   0.2500000), wk =   0.0069444
        k(   95) = (   0.1666667   0.0833333   0.3750000), wk =   0.0069444
        k(   96) = (   0.1666667   0.0833333  -0.5000000), wk =   0.0069444
        k(   97) = (   0.1666667   0.0833333  -0.3750000), wk =   0.0069444
        k(   98) = (   0.1666667   0.0833333  -0.2500000), wk =   0.0069444
        k(   99) = (   0.1666667   0.0833333  -0.1250000), wk =   0.0069444
        k(  100) = (   0.1666667   0.1666667   0.0000000), wk =   0.0069444
        k(  101) = (   0.1666667   0.1666667   0.1250000), wk =   0.0069444
        k(  102) = (   0.1666667   0.1666667   0.2500000), wk =   0.0069444
        k(  103) = (   0.1666667   0.1666667   0.3750000), wk =   0.0069444
        k(  104) = (   0.1666667   0.1666667  -0.5000000), wk =   0.0069444
        k(  105) = (   0.1666667   0.1666667  -0.3750000), wk =   0.0069444
        k(  106) = (   0.1666667   0.1666667  -0.2500000), wk =   0.0069444
        k(  107) = (   0.1666667   0.1666667  -0.1250000), wk =   0.0069444
        k(  108) = (   0.1666667   0.2500000   0.0000000), wk =   0.0069444
        k(  109) = (   0.1666667   0.2500000   0.1250000), wk =   0.0069444
        k(  110) = (   0.1666667   0.2500000   0.2500000), wk =   0.0069444
        k(  111) = (   0.1666667   0.2500000   0.3750000), wk =   0.0069444
        k(  112) = (   0.1666667   0.2500000  -0.5000000), wk =   0.0069444
        k(  113) = (   0.1666667   0.2500000  -0.3750000), wk =   0.0069444
        k(  114) = (   0.1666667   0.2500000  -0.2500000), wk =   0.0069444
        k(  115) = (   0.1666667   0.2500000  -0.1250000), wk =   0.0069444
        k(  116) = (   0.1666667   0.3333333   0.0000000), wk =   0.0069444
        k(  117) = (   0.1666667   0.3333333   0.1250000), wk =   0.0069444
        k(  118) = (   0.1666667   0.3333333   0.2500000), wk =   0.0069444
        k(  119) = (   0.1666667   0.3333333   0.3750000), wk =   0.0069444
        k(  120) = (   0.1666667   0.3333333  -0.5000000), wk =   0.0069444
        k(  121) = (   0.1666667   0.3333333  -0.3750000), wk =   0.0069444
        k(  122) = (   0.1666667   0.3333333  -0.2500000), wk =   0.0069444
        k(  123) = (   0.1666667   0.3333333  -0.1250000), wk =   0.0069444
        k(  124) = (   0.1666667   0.4166667   0.0000000), wk =   0.0034722
        k(  125) = (   0.1666667   0.4166667   0.1250000), wk =   0.0034722
        k(  126) = (   0.1666667   0.4166667   0.2500000), wk =   0.0034722
        k(  127) = (   0.1666667   0.4166667   0.3750000), wk =   0.0034722
        k(  128) = (   0.1666667   0.4166667  -0.5000000), wk =   0.0034722
        k(  129) = (   0.1666667   0.4166667  -0.3750000), wk =   0.0034722
        k(  130) = (   0.1666667   0.4166667  -0.2500000), wk =   0.0034722
        k(  131) = (   0.1666667   0.4166667  -0.1250000), wk =   0.0034722
        k(  132) = (   0.1666667  -0.0833333   0.0000000), wk =   0.0034722
        k(  133) = (   0.1666667  -0.0833333   0.1250000), wk =   0.0034722
        k(  134) = (   0.1666667  -0.0833333   0.2500000), wk =   0.0034722
        k(  135) = (   0.1666667  -0.0833333   0.3750000), wk =   0.0034722
        k(  136) = (   0.1666667  -0.0833333  -0.5000000), wk =   0.0034722
        k(  137) = (   0.1666667  -0.0833333  -0.3750000), wk =   0.0034722
        k(  138) = (   0.1666667  -0.0833333  -0.2500000), wk =   0.0034722
        k(  139) = (   0.1666667  -0.0833333  -0.1250000), wk =   0.0034722
        k(  140) = (   0.2500000   0.0000000   0.0000000), wk =   0.0069444
        k(  141) = (   0.2500000   0.0000000   0.1250000), wk =   0.0069444
        k(  142) = (   0.2500000   0.0000000   0.2500000), wk =   0.0069444
        k(  143) = (   0.2500000   0.0000000   0.3750000), wk =   0.0069444
        k(  144) = (   0.2500000   0.0000000  -0.5000000), wk =   0.0069444
        k(  145) = (   0.2500000   0.0000000  -0.3750000), wk =   0.0069444
        k(  146) = (   0.2500000   0.0000000  -0.2500000), wk =   0.0069444
        k(  147) = (   0.2500000   0.0000000  -0.1250000), wk =   0.0069444
        k(  148) = (   0.2500000   0.0833333   0.0000000), wk =   0.0069444
        k(  149) = (   0.2500000   0.0833333   0.1250000), wk =   0.0069444
        k(  150) = (   0.2500000   0.0833333   0.2500000), wk =   0.0069444
        k(  151) = (   0.2500000   0.0833333   0.3750000), wk =   0.0069444
        k(  152) = (   0.2500000   0.0833333  -0.5000000), wk =   0.0069444
        k(  153) = (   0.2500000   0.0833333  -0.3750000), wk =   0.0069444
        k(  154) = (   0.2500000   0.0833333  -0.2500000), wk =   0.0069444
        k(  155) = (   0.2500000   0.0833333  -0.1250000), wk =   0.0069444
        k(  156) = (   0.2500000   0.1666667   0.0000000), wk =   0.0069444
        k(  157) = (   0.2500000   0.1666667   0.1250000), wk =   0.0069444
        k(  158) = (   0.2500000   0.1666667   0.2500000), wk =   0.0069444
        k(  159) = (   0.2500000   0.1666667   0.3750000), wk =   0.0069444
        k(  160) = (   0.2500000   0.1666667  -0.5000000), wk =   0.0069444
        k(  161) = (   0.2500000   0.1666667  -0.3750000), wk =   0.0069444
        k(  162) = (   0.2500000   0.1666667  -0.2500000), wk =   0.0069444
        k(  163) = (   0.2500000   0.1666667  -0.1250000), wk =   0.0069444
        k(  164) = (   0.2500000   0.2500000   0.0000000), wk =   0.0069444
        k(  165) = (   0.2500000   0.2500000   0.1250000), wk =   0.0069444
        k(  166) = (   0.2500000   0.2500000   0.2500000), wk =   0.0069444
        k(  167) = (   0.2500000   0.2500000   0.3750000), wk =   0.0069444
        k(  168) = (   0.2500000   0.2500000  -0.5000000), wk =   0.0069444
        k(  169) = (   0.2500000   0.2500000  -0.3750000), wk =   0.0069444
        k(  170) = (   0.2500000   0.2500000  -0.2500000), wk =   0.0069444
        k(  171) = (   0.2500000   0.2500000  -0.1250000), wk =   0.0069444
        k(  172) = (   0.2500000   0.3333333   0.0000000), wk =   0.0069444
        k(  173) = (   0.2500000   0.3333333   0.1250000), wk =   0.0069444
        k(  174) = (   0.2500000   0.3333333   0.2500000), wk =   0.0069444
        k(  175) = (   0.2500000   0.3333333   0.3750000), wk =   0.0069444
        k(  176) = (   0.2500000   0.3333333  -0.5000000), wk =   0.0069444
        k(  177) = (   0.2500000   0.3333333  -0.3750000), wk =   0.0069444
        k(  178) = (   0.2500000   0.3333333  -0.2500000), wk =   0.0069444
        k(  179) = (   0.2500000   0.3333333  -0.1250000), wk =   0.0069444
        k(  180) = (   0.2500000  -0.1666667   0.0000000), wk =   0.0069444
        k(  181) = (   0.2500000  -0.1666667   0.1250000), wk =   0.0069444
        k(  182) = (   0.2500000  -0.1666667   0.2500000), wk =   0.0069444
        k(  183) = (   0.2500000  -0.1666667   0.3750000), wk =   0.0069444
        k(  184) = (   0.2500000  -0.1666667  -0.5000000), wk =   0.0069444
        k(  185) = (   0.2500000  -0.1666667  -0.3750000), wk =   0.0069444
        k(  186) = (   0.2500000  -0.1666667  -0.2500000), wk =   0.0069444
        k(  187) = (   0.2500000  -0.1666667  -0.1250000), wk =   0.0069444
        k(  188) = (   0.3333333   0.0000000   0.0000000), wk =   0.0069444
        k(  189) = (   0.3333333   0.0000000   0.1250000), wk =   0.0069444
        k(  190) = (   0.3333333  -0.0000000   0.2500000), wk =   0.0069444
        k(  191) = (   0.3333333   0.0000000   0.3750000), wk =   0.0069444
        k(  192) = (   0.3333333   0.0000000  -0.5000000), wk =   0.0069444
        k(  193) = (   0.3333333   0.0000000  -0.3750000), wk =   0.0069444
        k(  194) = (   0.3333333   0.0000000  -0.2500000), wk =   0.0069444
        k(  195) = (   0.3333333   0.0000000  -0.1250000), wk =   0.0069444
        k(  196) = (   0.3333333   0.0833333   0.0000000), wk =   0.0069444
        k(  197) = (   0.3333333   0.0833333   0.1250000), wk =   0.0069444
        k(  198) = (   0.3333333   0.0833333   0.2500000), wk =   0.0069444
        k(  199) = (   0.3333333   0.0833333   0.3750000), wk =   0.0069444
        k(  200) = (   0.3333333   0.0833333  -0.5000000), wk =   0.0069444
        k(  201) = (   0.3333333   0.0833333  -0.3750000), wk =   0.0069444
        k(  202) = (   0.3333333   0.0833333  -0.2500000), wk =   0.0069444
        k(  203) = (   0.3333333   0.0833333  -0.1250000), wk =   0.0069444
        k(  204) = (   0.3333333   0.1666667   0.0000000), wk =   0.0069444
        k(  205) = (   0.3333333   0.1666667   0.1250000), wk =   0.0069444
        k(  206) = (   0.3333333   0.1666667   0.2500000), wk =   0.0069444
        k(  207) = (   0.3333333   0.1666667   0.3750000), wk =   0.0069444
        k(  208) = (   0.3333333   0.1666667  -0.5000000), wk =   0.0069444
        k(  209) = (   0.3333333   0.1666667  -0.3750000), wk =   0.0069444
        k(  210) = (   0.3333333   0.1666667  -0.2500000), wk =   0.0069444
        k(  211) = (   0.3333333   0.1666667  -0.1250000), wk =   0.0069444
        k(  212) = (   0.3333333   0.2500000   0.0000000), wk =   0.0069444
        k(  213) = (   0.3333333   0.2500000   0.1250000), wk =   0.0069444
        k(  214) = (   0.3333333   0.2500000   0.2500000), wk =   0.0069444
        k(  215) = (   0.3333333   0.2500000   0.3750000), wk =   0.0069444
        k(  216) = (   0.3333333   0.2500000  -0.5000000), wk =   0.0069444
        k(  217) = (   0.3333333   0.2500000  -0.3750000), wk =   0.0069444
        k(  218) = (   0.3333333   0.2500000  -0.2500000), wk =   0.0069444
        k(  219) = (   0.3333333   0.2500000  -0.1250000), wk =   0.0069444
        k(  220) = (   0.3333333   0.3333333   0.0000000), wk =   0.0034722
        k(  221) = (   0.3333333   0.3333333   0.1250000), wk =   0.0034722
        k(  222) = (   0.3333333   0.3333333   0.2500000), wk =   0.0034722
        k(  223) = (   0.3333333   0.3333333   0.3750000), wk =   0.0034722
        k(  224) = (   0.3333333   0.3333333  -0.5000000), wk =   0.0034722
        k(  225) = (   0.3333333   0.3333333  -0.3750000), wk =   0.0034722
        k(  226) = (   0.3333333   0.3333333  -0.2500000), wk =   0.0034722
        k(  227) = (   0.3333333   0.3333333  -0.1250000), wk =   0.0034722
        k(  228) = (   0.3333333  -0.2500000   0.0000000), wk =   0.0069444
        k(  229) = (   0.3333333  -0.2500000   0.1250000), wk =   0.0069444
        k(  230) = (   0.3333333  -0.2500000   0.2500000), wk =   0.0069444
        k(  231) = (   0.3333333  -0.2500000   0.3750000), wk =   0.0069444
        k(  232) = (   0.3333333  -0.2500000  -0.5000000), wk =   0.0069444
        k(  233) = (   0.3333333  -0.2500000  -0.3750000), wk =   0.0069444
        k(  234) = (   0.3333333  -0.2500000  -0.2500000), wk =   0.0069444
        k(  235) = (   0.3333333  -0.2500000  -0.1250000), wk =   0.0069444
        k(  236) = (   0.3333333  -0.1666667   0.0000000), wk =   0.0034722
        k(  237) = (   0.3333333  -0.1666667   0.1250000), wk =   0.0034722
        k(  238) = (   0.3333333  -0.1666667   0.2500000), wk =   0.0034722
        k(  239) = (   0.3333333  -0.1666667   0.3750000), wk =   0.0034722
        k(  240) = (   0.3333333  -0.1666667  -0.5000000), wk =   0.0034722
        k(  241) = (   0.3333333  -0.1666667  -0.3750000), wk =   0.0034722
        k(  242) = (   0.3333333  -0.1666667  -0.2500000), wk =   0.0034722
        k(  243) = (   0.3333333  -0.1666667  -0.1250000), wk =   0.0034722
        k(  244) = (   0.4166667  -0.0000000   0.0000000), wk =   0.0069444
        k(  245) = (   0.4166667  -0.0000000   0.1250000), wk =   0.0069444
        k(  246) = (   0.4166667  -0.0000000   0.2500000), wk =   0.0069444
        k(  247) = (   0.4166667  -0.0000000   0.3750000), wk =   0.0069444
        k(  248) = (   0.4166667  -0.0000000  -0.5000000), wk =   0.0069444
        k(  249) = (   0.4166667  -0.0000000  -0.3750000), wk =   0.0069444
        k(  250) = (   0.4166667  -0.0000000  -0.2500000), wk =   0.0069444
        k(  251) = (   0.4166667  -0.0000000  -0.1250000), wk =   0.0069444
        k(  252) = (   0.4166667   0.0833333   0.0000000), wk =   0.0069444
        k(  253) = (   0.4166667   0.0833333   0.1250000), wk =   0.0069444
        k(  254) = (   0.4166667   0.0833333   0.2500000), wk =   0.0069444
        k(  255) = (   0.4166667   0.0833333   0.3750000), wk =   0.0069444
        k(  256) = (   0.4166667   0.0833333  -0.5000000), wk =   0.0069444
        k(  257) = (   0.4166667   0.0833333  -0.3750000), wk =   0.0069444
        k(  258) = (   0.4166667   0.0833333  -0.2500000), wk =   0.0069444
        k(  259) = (   0.4166667   0.0833333  -0.1250000), wk =   0.0069444
        k(  260) = (   0.4166667   0.1666667   0.0000000), wk =   0.0069444
        k(  261) = (   0.4166667   0.1666667   0.1250000), wk =   0.0069444
        k(  262) = (   0.4166667   0.1666667   0.2500000), wk =   0.0069444
        k(  263) = (   0.4166667   0.1666667   0.3750000), wk =   0.0069444
        k(  264) = (   0.4166667   0.1666667  -0.5000000), wk =   0.0069444
        k(  265) = (   0.4166667   0.1666667  -0.3750000), wk =   0.0069444
        k(  266) = (   0.4166667   0.1666667  -0.2500000), wk =   0.0069444
        k(  267) = (   0.4166667   0.1666667  -0.1250000), wk =   0.0069444
        k(  268) = (   0.4166667   0.2500000   0.0000000), wk =   0.0069444
        k(  269) = (   0.4166667   0.2500000   0.1250000), wk =   0.0069444
        k(  270) = (   0.4166667   0.2500000   0.2500000), wk =   0.0069444
        k(  271) = (   0.4166667   0.2500000   0.3750000), wk =   0.0069444
        k(  272) = (   0.4166667   0.2500000  -0.5000000), wk =   0.0069444
        k(  273) = (   0.4166667   0.2500000  -0.3750000), wk =   0.0069444
        k(  274) = (   0.4166667   0.2500000  -0.2500000), wk =   0.0069444
        k(  275) = (   0.4166667   0.2500000  -0.1250000), wk =   0.0069444
        k(  276) = (   0.4166667  -0.3333333   0.0000000), wk =   0.0069444
        k(  277) = (   0.4166667  -0.3333333   0.1250000), wk =   0.0069444
        k(  278) = (   0.4166667  -0.3333333   0.2500000), wk =   0.0069444
        k(  279) = (   0.4166667  -0.3333333   0.3750000), wk =   0.0069444
        k(  280) = (   0.4166667  -0.3333333  -0.5000000), wk =   0.0069444
        k(  281) = (   0.4166667  -0.3333333  -0.3750000), wk =   0.0069444
        k(  282) = (   0.4166667  -0.3333333  -0.2500000), wk =   0.0069444
        k(  283) = (   0.4166667  -0.3333333  -0.1250000), wk =   0.0069444
        k(  284) = (   0.4166667  -0.2500000   0.0000000), wk =   0.0069444
        k(  285) = (   0.4166667  -0.2500000   0.1250000), wk =   0.0069444
        k(  286) = (   0.4166667  -0.2500000   0.2500000), wk =   0.0069444
        k(  287) = (   0.4166667  -0.2500000   0.3750000), wk =   0.0069444
        k(  288) = (   0.4166667  -0.2500000  -0.5000000), wk =   0.0069444
        k(  289) = (   0.4166667  -0.2500000  -0.3750000), wk =   0.0069444
        k(  290) = (   0.4166667  -0.2500000  -0.2500000), wk =   0.0069444
        k(  291) = (   0.4166667  -0.2500000  -0.1250000), wk =   0.0069444
        k(  292) = (  -0.5000000  -0.0000000   0.0000000), wk =   0.0034722
        k(  293) = (  -0.5000000  -0.0000000   0.1250000), wk =   0.0069444
        k(  294) = (  -0.5000000  -0.0000000   0.2500000), wk =   0.0069444
        k(  295) = (  -0.5000000  -0.0000000   0.3750000), wk =   0.0069444
        k(  296) = (  -0.5000000  -0.0000000  -0.5000000), wk =   0.0034722
        k(  297) = (  -0.5000000   0.0833333   0.0000000), wk =   0.0069444
        k(  298) = (  -0.5000000   0.0833333   0.1250000), wk =   0.0069444
        k(  299) = (  -0.5000000   0.0833333   0.2500000), wk =   0.0069444
        k(  300) = (  -0.5000000   0.0833333   0.3750000), wk =   0.0069444
        k(  301) = (  -0.5000000   0.0833333  -0.5000000), wk =   0.0069444
        k(  302) = (  -0.5000000   0.0833333  -0.3750000), wk =   0.0069444
        k(  303) = (  -0.5000000   0.0833333  -0.2500000), wk =   0.0069444
        k(  304) = (  -0.5000000   0.0833333  -0.1250000), wk =   0.0069444
        k(  305) = (  -0.5000000   0.1666667   0.0000000), wk =   0.0069444
        k(  306) = (  -0.5000000   0.1666667   0.1250000), wk =   0.0069444
        k(  307) = (  -0.5000000   0.1666667   0.2500000), wk =   0.0069444
        k(  308) = (  -0.5000000   0.1666667   0.3750000), wk =   0.0069444
        k(  309) = (  -0.5000000   0.1666667  -0.5000000), wk =   0.0069444
        k(  310) = (  -0.5000000   0.1666667  -0.3750000), wk =   0.0069444
        k(  311) = (  -0.5000000   0.1666667  -0.2500000), wk =   0.0069444
        k(  312) = (  -0.5000000   0.1666667  -0.1250000), wk =   0.0069444
        k(  313) = (  -0.5000000   0.2500000   0.0000000), wk =   0.0034722
        k(  314) = (  -0.5000000   0.2500000   0.1250000), wk =   0.0034722
        k(  315) = (  -0.5000000   0.2500000   0.2500000), wk =   0.0034722
        k(  316) = (  -0.5000000   0.2500000   0.3750000), wk =   0.0034722
        k(  317) = (  -0.5000000   0.2500000  -0.5000000), wk =   0.0034722
        k(  318) = (  -0.5000000   0.2500000  -0.3750000), wk =   0.0034722
        k(  319) = (  -0.5000000   0.2500000  -0.2500000), wk =   0.0034722
        k(  320) = (  -0.5000000   0.2500000  -0.1250000), wk =   0.0034722

     Dense  grid:    43253 G-vectors     FFT dimensions: (  40,  40,  64)

     Smooth grid:    15281 G-vectors     FFT dimensions: (  27,  27,  48)

     Dynamical RAM for                 wfc:       0.90 MB

     Dynamical RAM for     wfc (w. buffer):     289.86 MB

     Dynamical RAM for           str. fact:       1.32 MB

     Dynamical RAM for           local pot:       0.00 MB

     Dynamical RAM for          nlocal pot:       1.51 MB

     Dynamical RAM for                qrad:       3.21 MB

     Dynamical RAM for          rho,v,vnew:       4.32 MB

     Dynamical RAM for               rhoin:       1.44 MB

     Dynamical RAM for            rho*nmix:      10.56 MB

     Dynamical RAM for           G-vectors:       2.59 MB

     Dynamical RAM for          h,s,v(r/c):       0.18 MB

     Dynamical RAM for          <psi|beta>:       0.02 MB

     Dynamical RAM for                 psi:       1.81 MB

     Dynamical RAM for                hpsi:       1.81 MB

     Dynamical RAM for                spsi:       1.81 MB

     Dynamical RAM for      wfcinit/wfcrot:       2.01 MB

     Dynamical RAM for           addusdens:     124.08 MB

     Dynamical RAM for          addusforce:     125.74 MB

     Dynamical RAM for         addusstress:     132.66 MB

     Estimated static dynamical RAM per process >     310.15 MB

     Estimated max dynamical RAM per process >     453.37 MB

     Check: negative core charge=   -0.000003

     Initial potential from superposition of free atoms

     starting charge      51.9997, renormalised to      52.0000
     Starting wfcs are   34 randomized atomic wfcs
     Checking if some PAW data can be deallocated... 

     total cpu time spent up to now is       32.6 secs

     Self-consistent Calculation

     iteration #  1     ecut=    50.00 Ry     beta= 0.40
     Davidson diagonalization with overlap

---- Real-time Memory Report at c_bands before calling an iterative solver
           349 MiB given to the printing process from OS
             0 MiB allocation reported by mallinfo(arena+hblkhd)
          4813 MiB available memory on the node where the printing process lives
------------------
     ethr =  1.00E-02,  avg # of iterations =  2.9

     total cpu time spent up to now is      116.2 secs

     total energy              =   -1006.32219050 Ry
     estimated scf accuracy    <       0.85242588 Ry

     iteration #  2     ecut=    50.00 Ry     beta= 0.40
     Davidson diagonalization with overlap

---- Real-time Memory Report at c_bands before calling an iterative solver
           499 MiB given to the printing process from OS
             0 MiB allocation reported by mallinfo(arena+hblkhd)
          4742 MiB available memory on the node where the printing process lives
------------------
     ethr =  1.64E-03,  avg # of iterations =  2.0

     total cpu time spent up to now is      171.6 secs

     WARNING: integrated charge=    52.00026630, expected=    52.00000000

     total energy              =   -1006.55355817 Ry
     estimated scf accuracy    <       0.10188242 Ry

     iteration #  3     ecut=    50.00 Ry     beta= 0.40
     Davidson diagonalization with overlap

---- Real-time Memory Report at c_bands before calling an iterative solver
           499 MiB given to the printing process from OS
             0 MiB allocation reported by mallinfo(arena+hblkhd)
          4740 MiB available memory on the node where the printing process lives
------------------
     ethr =  1.96E-04,  avg # of iterations =  2.3

     total cpu time spent up to now is      238.2 secs

     WARNING: integrated charge=    52.00018542, expected=    52.00000000

     total energy              =   -1006.56779039 Ry
     estimated scf accuracy    <       0.00918303 Ry

     iteration #  4     ecut=    50.00 Ry     beta= 0.40
     Davidson diagonalization with overlap

---- Real-time Memory Report at c_bands before calling an iterative solver
           500 MiB given to the printing process from OS
             0 MiB allocation reported by mallinfo(arena+hblkhd)
          4865 MiB available memory on the node where the printing process lives
------------------
     ethr =  1.77E-05,  avg # of iterations =  4.2

     total cpu time spent up to now is      321.6 secs

     WARNING: integrated charge=    52.00009670, expected=    52.00000000

     total energy              =   -1006.56806091 Ry
     estimated scf accuracy    <       0.00171839 Ry

     iteration #  5     ecut=    50.00 Ry     beta= 0.40
     Davidson diagonalization with overlap

---- Real-time Memory Report at c_bands before calling an iterative solver
           500 MiB given to the printing process from OS
             0 MiB allocation reported by mallinfo(arena+hblkhd)
          4853 MiB available memory on the node where the printing process lives
------------------
     ethr =  3.30E-06,  avg # of iterations =  2.5

     total cpu time spent up to now is      377.3 secs

     WARNING: integrated charge=    52.00008417, expected=    52.00000000

     total energy              =   -1006.56814963 Ry
     estimated scf accuracy    <       0.00004107 Ry

     iteration #  6     ecut=    50.00 Ry     beta= 0.40
     Davidson diagonalization with overlap

---- Real-time Memory Report at c_bands before calling an iterative solver
           501 MiB given to the printing process from OS
             0 MiB allocation reported by mallinfo(arena+hblkhd)
          4928 MiB available memory on the node where the printing process lives
------------------
     ethr =  7.90E-08,  avg # of iterations =  3.0

     total cpu time spent up to now is      447.7 secs

     WARNING: integrated charge=    52.00007556, expected=    52.00000000

     total energy              =   -1006.56815635 Ry
     estimated scf accuracy    <       0.00007416 Ry

     iteration #  7     ecut=    50.00 Ry     beta= 0.40
     Davidson diagonalization with overlap

---- Real-time Memory Report at c_bands before calling an iterative solver
           502 MiB given to the printing process from OS
             0 MiB allocation reported by mallinfo(arena+hblkhd)
          4943 MiB available memory on the node where the printing process lives
------------------
     ethr =  7.90E-08,  avg # of iterations =  2.0

     total cpu time spent up to now is      505.7 secs

     WARNING: integrated charge=    52.00007350, expected=    52.00000000

     total energy              =   -1006.56817181 Ry
     estimated scf accuracy    <       0.00000034 Ry

     iteration #  8     ecut=    50.00 Ry     beta= 0.40
     Davidson diagonalization with overlap

---- Real-time Memory Report at c_bands before calling an iterative solver
           502 MiB given to the printing process from OS
             0 MiB allocation reported by mallinfo(arena+hblkhd)
          4939 MiB available memory on the node where the printing process lives
------------------
     ethr =  6.53E-10,  avg # of iterations =  3.1

     total cpu time spent up to now is      583.8 secs

     WARNING: integrated charge=    52.00007362, expected=    52.00000000

     total energy              =   -1006.56817198 Ry
     estimated scf accuracy    <       0.00000020 Ry

     iteration #  9     ecut=    50.00 Ry     beta= 0.40
     Davidson diagonalization with overlap

---- Real-time Memory Report at c_bands before calling an iterative solver
           503 MiB given to the printing process from OS
             0 MiB allocation reported by mallinfo(arena+hblkhd)
          4934 MiB available memory on the node where the printing process lives
------------------
     ethr =  3.81E-10,  avg # of iterations =  2.7

     total cpu time spent up to now is      652.9 secs

     WARNING: integrated charge=    52.00007332, expected=    52.00000000

     total energy              =   -1006.56817199 Ry
     estimated scf accuracy    <       0.00000016 Ry

     iteration # 10     ecut=    50.00 Ry     beta= 0.40
     Davidson diagonalization with overlap

---- Real-time Memory Report at c_bands before calling an iterative solver
           503 MiB given to the printing process from OS
             0 MiB allocation reported by mallinfo(arena+hblkhd)
          4932 MiB available memory on the node where the printing process lives
------------------
     ethr =  3.10E-10,  avg # of iterations =  2.0

     total cpu time spent up to now is      710.0 secs

     End of self-consistent calculation

          k = 0.0000 0.0000 0.0000 (  1877 PWs)   bands (ev):

  -114.5434-114.5432 -68.7452 -68.7428 -68.7400 -68.7395 -68.7355 -68.7351
    -9.2205  -8.4865   3.1598   3.1604   3.2080   3.2317   3.3563   3.3564
     4.3472   4.3473   4.5589   4.5590   4.8373   8.0991   8.0998   8.7989
     8.8979   8.9059   9.6974  14.1562  17.1107  21.8522  21.8539

     occupation numbers 
     1.0000   1.0000   1.0000   1.0000   1.0000   1.0000   1.0000   1.0000
     1.0000   1.0000   1.0000   1.0000   1.0000   1.0000   1.0000   1.0000
     1.0000   1.0000   1.0000   1.0000   1.0000   1.0000   1.0000   1.0002
     1.0019   1.0023   0.0240   0.0000   0.0000   0.0000   0.0000

          k =-0.0008 0.0000 0.0775 (  1893 PWs)   bands (ev):

  -114.5434-114.5432 -68.7452 -68.7430 -68.7400 -68.7396 -68.7355 -68.7352
    -9.1940  -8.5160   3.1594   3.1601   3.1643   3.1827   3.3451   3.3456
     4.3582   4.3583   4.5543   4.5544   5.0193   8.1301   8.1307   8.4392
     8.8682   8.8692  10.1143  14.0171  17.2339  21.8502  21.8518

     occupation numbers 
     1.0000   1.0000   1.0000   1.0000   1.0000   1.0000   1.0000   1.0000
     1.0000   1.0000   1.0000   1.0000   1.0000   1.0000   1.0000   1.0000
     1.0000   1.0000   1.0000   1.0000   1.0000   1.0000   1.0000   1.0000
     1.0010   1.0010   0.0000   0.0000   0.0000   0.0000   0.0000

          k =-0.0016 0.0000 0.1550 (  1884 PWs)   bands (ev):

  -114.5434-114.5433 -68.7450 -68.7432 -68.7399 -68.7396 -68.7354 -68.7352
    -9.1182  -8.5994   3.0337   3.0995   3.1763   3.1793   3.3151   3.3161
     4.3883   4.3885   4.5396   4.5397   5.4641   7.8558   8.2180   8.2186
     8.7834   8.7837  10.8309  13.6303  17.5934  21.2019  21.8750

     occupation numbers 
     1.0000   1.0000   1.0000   1.0000   1.0000   1.0000   1.0000   1.0000
     1.0000   1.0000   1.0000   1.0000   1.0000   1.0000   1.0000   1.0000
     1.0000   1.0000   1.0000   1.0000   1.0000   1.0000   1.0000   1.0000
     1.0001   1.0001   0.0000   0.0000   0.0000   0.0000   0.0000

          k =-0.0023 0.0000 0.2325 (  1891 PWs)   bands (ev):

  -114.5434-114.5433 -68.7446 -68.7437 -68.7399 -68.7397 -68.7354 -68.7353
    -9.0029  -8.7222   2.9547   3.0122   3.1978   3.1997   3.2762   3.2775
     4.4299   4.4301   4.5130   4.5132   6.0314   7.2522   8.3489   8.3495
     8.6556   8.6559  11.6028  13.0584  18.1789  20.0205  21.9460

     occupation numbers 
     1.0000   1.0000   1.0000   1.0000   1.0000   1.0000   1.0000   1.0000
     1.0000   1.0000   1.0000   1.0000   1.0000   1.0000   1.0000   1.0000
     1.0000   1.0000   1.0000   1.0000   1.0000   1.0000   1.0000   1.0000
     1.0000   1.0000   0.0000   0.0000   0.0000   0.0000   0.0000

          k = 0.0031 0.0000-0.3100 (  1892 PWs)   bands (ev):

  -114.5433-114.5433 -68.7441 -68.7441 -68.7398 -68.7398 -68.7354 -68.7354
    -8.8641  -8.8641   2.9522   2.9522   3.2200   3.2200   3.2484   3.2484
     4.4679   4.4679   4.4813   4.4813   6.6402   6.6402   8.4922   8.4922
     8.5141   8.5141  12.3635  12.3635  18.9916  18.9916  22.0436

     occupation numbers 
     1.0000   1.0000   1.0000   1.0000   1.0000   1.0000   1.0000   1.0000
     1.0000   1.0000   1.0000   1.0000   1.0000   1.0000   1.0000   1.0000
     1.0000   1.0000   1.0000   1.0000   1.0000   1.0000   1.0000   1.0000
     1.0000   1.0000   0.0000   0.0000   0.0000   0.0000   0.0000

          k = 0.0000 0.0962 0.0000 (  1886 PWs)   bands (ev):

  -114.5434-114.5432 -68.7453 -68.7429 -68.7401 -68.7396 -68.7356 -68.7352
    -9.1813  -8.4689   3.1150   3.1822   3.2333   3.2845   3.3563   3.3883
     4.3307   4.3448   4.5600   4.5914   4.8285   7.8416   8.0054   8.4183
     8.7528   8.8562  10.2655  14.4514  17.1090  21.0840  21.9222

     occupation numbers 
     1.0000   1.0000   1.0000   1.0000   1.0000   1.0000   1.0000   1.0000
     1.0000   1.0000   1.0000   1.0000   1.0000   1.0000   1.0000   1.0000
     1.0000   1.0000   1.0000   1.0000   1.0000   1.0000   1.0000   1.0000
     1.0000   1.0008   0.0000   0.0000   0.0000   0.0000   0.0000

          k =-0.0008 0.0962 0.0775 (  1887 PWs)   bands (ev):

  -114.5434-114.5432 -68.7452 -68.7430 -68.7401 -68.7397 -68.7356 -68.7352
    -9.1555  -8.4974   3.1003   3.1831   3.1917   3.2283   3.3545   3.3787
     4.3434   4.3557   4.5552   4.5757   5.0254   7.8724   8.0381   8.2030
     8.7339   8.8219  10.5243  14.2987  17.2366  21.1069  21.9172

     occupation numbers 
     1.0000   1.0000   1.0000   1.0000   1.0000   1.0000   1.0000   1.0000
     1.0000   1.0000   1.0000   1.0000   1.0000   1.0000   1.0000   1.0000
     1.0000   1.0000   1.0000   1.0000   1.0000   1.0000   1.0000   1.0000
     1.0000   1.0003   0.0000   0.0000   0.0000   0.0000   0.0000

          k =-0.0016 0.0962 0.1550 (  1899 PWs)   bands (ev):

  -114.5434-114.5433 -68.7450 -68.7433 -68.7401 -68.7398 -68.7356 -68.7353
    -9.0816  -8.5779   3.0354   3.0574   3.1947   3.2204   3.3283   3.3501
     4.3776   4.3859   4.5396   4.5519   5.4823   7.7330   7.9865   8.1315
     8.6402   8.7292  11.1161  13.8836  17.6006  21.0294  21.3756

     occupation numbers 
     1.0000   1.0000   1.0000   1.0000   1.0000   1.0000   1.0000   1.0000
     1.0000   1.0000   1.0000   1.0000   1.0000   1.0000   1.0000   1.0000
     1.0000   1.0000   1.0000   1.0000   1.0000   1.0000   1.0000   1.0000
     1.0000   1.0000   0.0000   0.0000   0.0000   0.0000   0.0000

          k =-0.0023 0.0962 0.2325 (  1894 PWs)   bands (ev):

  -114.5434-114.5433 -68.7446 -68.7437 -68.7400 -68.7398 -68.7355 -68.7354
    -8.9693  -8.6968   2.9455   2.9785   3.2140   3.2347   3.2907   3.3110
     4.4242   4.4281   4.5117   4.5193   6.0483   7.2094   8.1272   8.2696
     8.4863   8.5934  11.8361  13.2872  18.1816  19.9840  21.4130

     occupation numbers 
     1.0000   1.0000   1.0000   1.0000   1.0000   1.0000   1.0000   1.0000
     1.0000   1.0000   1.0000   1.0000   1.0000   1.0000   1.0000   1.0000
     1.0000   1.0000   1.0000   1.0000   1.0000   1.0000   1.0000   1.0000
     1.0000   1.0000   0.0000   0.0000   0.0000   0.0000   0.0000

          k = 0.0031 0.0962-0.3100 (  1896 PWs)   bands (ev):

  -114.5433-114.5433 -68.7442 -68.7442 -68.7399 -68.7399 -68.7354 -68.7354
    -8.8344  -8.8344   2.9300   2.9300   3.2414   3.2414   3.2756   3.2756
     4.4672   4.4672   4.4803   4.4803   6.6389   6.6389   8.3034   8.3034
     8.4333   8.4333  12.5829  12.5829  18.9798  18.9798  21.6355

     occupation numbers 
     1.0000   1.0000   1.0000   1.0000   1.0000   1.0000   1.0000   1.0000
     1.0000   1.0000   1.0000   1.0000   1.0000   1.0000   1.0000   1.0000
     1.0000   1.0000   1.0000   1.0000   1.0000   1.0000   1.0000   1.0000
     1.0000   1.0000   0.0000   0.0000   0.0000   0.0000   0.0000

          k = 0.0000 0.1925 0.0000 (  1896 PWs)   bands (ev):

  -114.5434-114.5432 -68.7452 -68.7431 -68.7404 -68.7399 -68.7359 -68.7354
    -9.0711  -8.4220   3.0110   3.2414   3.2684   3.3429   3.4768   3.4834
     4.2864   4.3459   4.5675   4.6787   4.8077   7.1809   7.7488   7.7850
     8.6112   8.7140  11.1738  15.1725  17.0988  19.7655  21.4991

     occupation numbers 
     1.0000   1.0000   1.0000   1.0000   1.0000   1.0000   1.0000   1.0000
     1.0000   1.0000   1.0000   1.0000   1.0000   1.0000   1.0000   1.0000
     1.0000   1.0000   1.0000   1.0000   1.0000   1.0000   1.0000   1.0000
     1.0000   1.0000   0.0000   0.0000   0.0000   0.0000   0.0000

          k =-0.0008 0.1925 0.0775 (  1898 PWs)   bands (ev):

  -114.5434-114.5432 -68.7451 -68.7432 -68.7404 -68.7399 -68.7359 -68.7354
    -9.0473  -8.4475   2.9932   3.2109   3.2467   3.3135   3.4420   3.4717
     4.3050   4.3563   4.5618   4.6247   5.0532   7.2144   7.6903   7.7872
     8.5706   8.6770  11.3316  14.9758  17.2410  19.8016  21.4057

     occupation numbers 
     1.0000   1.0000   1.0000   1.0000   1.0000   1.0000   1.0000   1.0000
     1.0000   1.0000   1.0000   1.0000   1.0000   1.0000   1.0000   1.0000
     1.0000   1.0000   1.0000   1.0000   1.0000   1.0000   1.0000   1.0000
     1.0000   1.0000   0.0000   0.0000   0.0000   0.0000   0.0000

          k =-0.0016 0.1925 0.1550 (  1903 PWs)   bands (ev):

  -114.5434-114.5432 -68.7449 -68.7434 -68.7404 -68.7400 -68.7358 -68.7355
    -8.9791  -8.5199   2.9442   3.0545   3.2587   3.2976   3.3966   3.4379
     4.3515   4.3853   4.5433   4.5812   5.5322   7.2529   7.5203   7.8939
     8.4246   8.5724  11.7659  14.4801  17.6093  19.8538  21.0454

     occupation numbers 
     1.0000   1.0000   1.0000   1.0000   1.0000   1.0000   1.0000   1.0000
     1.0000   1.0000   1.0000   1.0000   1.0000   1.0000   1.0000   1.0000
     1.0000   1.0000   1.0000   1.0000   1.0000   1.0000   1.0000   1.0000
     1.0000   1.0000   0.0000   0.0000   0.0000   0.0000   0.0000

          k =-0.0023 0.1925 0.2325 (  1911 PWs)   bands (ev):

  -114.5433-114.5433 -68.7446 -68.7438 -68.7403 -68.7401 -68.7358 -68.7356
    -8.8758  -8.6273   2.8891   2.9272   3.2784   3.3086   3.3540   3.3932
     4.4123   4.4265   4.5120   4.5346   6.0751   7.0039   7.6231   8.0514
     8.1748   8.4184  12.3866  13.8231  18.1493  19.5668  20.6971

     occupation numbers 
     1.0000   1.0000   1.0000   1.0000   1.0000   1.0000   1.0000   1.0000
     1.0000   1.0000   1.0000   1.0000   1.0000   1.0000   1.0000   1.0000
     1.0000   1.0000   1.0000   1.0000   1.0000   1.0000   1.0000   1.0000
     1.0000   1.0000   0.0000   0.0000   0.0000   0.0000   0.0000

          k = 0.0031 0.1925-0.3100 (  1912 PWs)   bands (ev):

  -114.5433-114.5433 -68.7442 -68.7442 -68.7402 -68.7402 -68.7357 -68.7357
    -8.7524  -8.7524   2.8736   2.8736   3.3060   3.3060   3.3506   3.3506
     4.4676   4.4676   4.4805   4.4805   6.5834   6.5834   7.8808   7.8808
     8.2365   8.2365  13.0995  13.0995  18.8409  18.8409  20.8642

     occupation numbers 
     1.0000   1.0000   1.0000   1.0000   1.0000   1.0000   1.0000   1.0000
     1.0000   1.0000   1.0000   1.0000   1.0000   1.0000   1.0000   1.0000
     1.0000   1.0000   1.0000   1.0000   1.0000   1.0000   1.0000   1.0000
     1.0000   1.0000   0.0000   0.0000   0.0000   0.0000   0.0000

          k = 0.0000 0.2887 0.0000 (  1908 PWs)   bands (ev):

  -114.5433-114.5432 -68.7451 -68.7433 -68.7409 -68.7402 -68.7362 -68.7357
    -8.9113  -8.3626   2.9063   3.2487   3.3149   3.4381   3.6165   3.7234
     4.2340   4.3687   4.5761   4.7382   4.8663   6.3921   7.1803   7.3956
     8.3760   8.5068  12.1658  15.9708  17.0585  18.5730  20.5475

     occupation numbers 
     1.0000   1.0000   1.0000   1.0000   1.0000   1.0000   1.0000   1.0000
     1.0000   1.0000   1.0000   1.0000   1.0000   1.0000   1.0000   1.0000
     1.0000   1.0000   1.0000   1.0000   1.0000   1.0000   1.0000   1.0000
     1.0000   1.0000   0.0000   0.0000   0.0000   0.0000   0.0000

          k =-0.0008 0.2887 0.0775 (  1903 PWs)   bands (ev):

  -114.5433-114.5432 -68.7450 -68.7434 -68.7408 -68.7402 -68.7362 -68.7357
    -8.8906  -8.3836   2.8887   3.1908   3.3222   3.4233   3.5973   3.6440
     4.2637   4.3773   4.5698   4.6744   5.1261   6.4409   7.1201   7.4404
     8.3561   8.4673  12.2597  15.6948  17.2338  18.6163  20.5070

     occupation numbers 
     1.0000   1.0000   1.0000   1.0000   1.0000   1.0000   1.0000   1.0000
     1.0000   1.0000   1.0000   1.0000   1.0000   1.0000   1.0000   1.0000
     1.0000   1.0000   1.0000   1.0000   1.0000   1.0000   1.0000   1.0000
     1.0000   1.0000   0.0000   0.0000   0.0000   0.0000   0.0000

          k =-0.0016 0.2887 0.1550 (  1904 PWs)   bands (ev):

  -114.5433-114.5432 -68.7448 -68.7436 -68.7408 -68.7403 -68.7361 -68.7357
    -8.8316  -8.4433   2.8453   3.0383   3.3432   3.4031   3.5263   3.5689
     4.3280   4.4017   4.5493   4.6201   5.5783   6.5596   7.0183   7.5664
     8.2434   8.3515  12.5529  15.1017  17.5777  18.7059  20.3564

     occupation numbers 
     1.0000   1.0000   1.0000   1.0000   1.0000   1.0000   1.0000   1.0000
     1.0000   1.0000   1.0000   1.0000   1.0000   1.0000   1.0000   1.0000
     1.0000   1.0000   1.0000   1.0000   1.0000   1.0000   1.0000   1.0000
     1.0000   1.0000   0.0000   0.0000   0.0000   0.0000   0.0000

          k =-0.0023 0.2887 0.2325 (  1910 PWs)   bands (ev):

  -114.5433-114.5433 -68.7445 -68.7439 -68.7407 -68.7405 -68.7361 -68.7358
    -8.7430  -8.5327   2.8058   2.8898   3.3730   3.4081   3.4621   3.5113
     4.4064   4.4374   4.5168   4.5598   6.0013   6.5373   7.1608   7.7508
     7.9723   8.1740  13.0445  14.3986  17.9819  18.6846  20.2541

     occupation numbers 
     1.0000   1.0000   1.0000   1.0000   1.0000   1.0000   1.0000   1.0000
     1.0000   1.0000   1.0000   1.0000   1.0000   1.0000   1.0000   1.0000
     1.0000   1.0000   1.0000   1.0000   1.0000   1.0000   1.0000   1.0000
     1.0000   1.0000   0.0000   0.0000   0.0000   0.0000   0.0000

          k = 0.0031 0.2887-0.3100 (  1914 PWs)   bands (ev):

  -114.5433-114.5433 -68.7442 -68.7442 -68.7406 -68.7406 -68.7360 -68.7360
    -8.6380  -8.6380   2.8111   2.8111   3.4054   3.4054   3.4573   3.4573
     4.4754   4.4754   4.4892   4.4892   6.3185   6.3185   7.5660   7.5660
     7.9641   7.9641  13.6855  13.6855  18.3986  18.3986  20.4838

     occupation numbers 
     1.0000   1.0000   1.0000   1.0000   1.0000   1.0000   1.0000   1.0000
     1.0000   1.0000   1.0000   1.0000   1.0000   1.0000   1.0000   1.0000
     1.0000   1.0000   1.0000   1.0000   1.0000   1.0000   1.0000   1.0000
     1.0000   1.0000   0.0000   0.0000   0.0000   0.0000   0.0000

          k = 0.0000 0.3849 0.0000 (  1916 PWs)   bands (ev):

  -114.5433-114.5432 -68.7449 -68.7436 -68.7413 -68.7406 -68.7365 -68.7359
    -8.7351  -8.3138   2.8585   3.2122   3.3748   3.5751   3.7757   3.8938
     4.2556   4.4224   4.5863   4.7412   5.0142   5.7170   6.6179   7.0272
     8.0638   8.2868  13.1775  16.4546  16.8734  17.7464  19.9429

     occupation numbers 
     1.0000   1.0000   1.0000   1.0000   1.0000   1.0000   1.0000   1.0000
     1.0000   1.0000   1.0000   1.0000   1.0000   1.0000   1.0000   1.0000
     1.0000   1.0000   1.0000   1.0000   1.0000   1.0000   1.0000   1.0000
     1.0000   1.0000   0.0000   0.0000   0.0000   0.0000   0.0000

          k =-0.0008 0.3849 0.0775 (  1912 PWs)   bands (ev):

  -114.5433-114.5432 -68.7449 -68.7436 -68.7413 -68.7406 -68.7365 -68.7359
    -8.7185  -8.3292   2.8394   3.1550   3.3858   3.5585   3.7532   3.8077
     4.2799   4.4280   4.5800   4.7139   5.1838   5.8012   6.5895   7.0802
     8.0776   8.2430  13.2131  16.0821  17.1392  17.7761  19.9287

     occupation numbers 
     1.0000   1.0000   1.0000   1.0000   1.0000   1.0000   1.0000   1.0000
     1.0000   1.0000   1.0000   1.0000   1.0000   1.0000   1.0000   1.0000
     1.0000   1.0000   1.0000   1.0000   1.0000   1.0000   1.0000   1.0000
     1.0000   1.0000   0.0000   0.0000   0.0000   0.0000   0.0000

          k =-0.0016 0.3849 0.1550 (  1913 PWs)   bands (ev):

  -114.5433-114.5432 -68.7448 -68.7438 -68.7412 -68.7407 -68.7364 -68.7360
    -8.6717  -8.3733   2.7942   3.0085   3.4182   3.5307   3.6707   3.7119
     4.3447   4.4442   4.5597   4.6618   5.4464   5.9820   6.6336   7.2277
     8.0438   8.1208  13.3582  15.4753  17.4505  17.8573  19.8872

     occupation numbers 
     1.0000   1.0000   1.0000   1.0000   1.0000   1.0000   1.0000   1.0000
     1.0000   1.0000   1.0000   1.0000   1.0000   1.0000   1.0000   1.0000
     1.0000   1.0000   1.0000   1.0000   1.0000   1.0000   1.0000   1.0000
     1.0000   1.0000   0.0000   0.0000   0.0000   0.0000   0.0000

          k =-0.0023 0.3849 0.2325 (  1916 PWs)   bands (ev):

  -114.5433-114.5432 -68.7445 -68.7441 -68.7411 -68.7408 -68.7363 -68.7361
    -8.6020  -8.4403   2.7573   2.8576   3.4681   3.5240   3.5914   3.6379
     4.4281   4.4692   4.5305   4.5942   5.6531   5.9738   7.0000   7.4408
     7.8544   7.9277  13.6793  14.8153  17.6875  17.9186  19.9783

     occupation numbers 
     1.0000   1.0000   1.0000   1.0000   1.0000   1.0000   1.0000   1.0000
     1.0000   1.0000   1.0000   1.0000   1.0000   1.0000   1.0000   1.0000
     1.0000   1.0000   1.0000   1.0000   1.0000   1.0000   1.0000   1.0000
     1.0000   1.0000   0.0000   0.0000   0.0000   0.0000   0.0000

          k = 0.0031 0.3849-0.3100 (  1910 PWs)   bands (ev):

  -114.5433-114.5433 -68.7443 -68.7443 -68.7409 -68.7409 -68.7362 -68.7362
    -8.5206  -8.5206   2.7700   2.7700   3.5196   3.5196   3.5729   3.5729
     4.4977   4.4977   4.5157   4.5157   5.8306   5.8306   7.4834   7.4834
     7.6847   7.6847  14.1864  14.1864  17.8557  17.8557  20.3794

     occupation numbers 
[...]
     4.3212   4.4420   4.6177   4.8166   4.9897   5.6565   6.0609   6.4765
     7.5704   7.7424  14.7371  16.4007  17.0107  17.5642  19.5296

     occupation numbers 
     1.0000   1.0000   1.0000   1.0000   1.0000   1.0000   1.0000   1.0000
     1.0000   1.0000   1.0000   1.0000   1.0000   1.0000   1.0000   1.0000
     1.0000   1.0000   1.0000   1.0000   1.0000   1.0000   1.0000   1.0000
     1.0000   1.0000   0.0000   0.0000   0.0000   0.0000   0.0000

          k =-0.5016-0.0962 0.1600 (  1915 PWs)   bands (ev):

  -114.5432-114.5432 -68.7450 -68.7442 -68.7410 -68.7404 -68.7370 -68.7364
    -8.4837  -8.3297   2.9614   3.1024   3.4143   3.6007   3.8074   3.8547
     4.3792   4.4843   4.6177   4.7836   5.0768   5.6213   6.2585   6.8064
     7.4630   7.7679  14.7375  16.0590  17.1868  17.6411  19.1943

     occupation numbers 
     1.0000   1.0000   1.0000   1.0000   1.0000   1.0000   1.0000   1.0000
     1.0000   1.0000   1.0000   1.0000   1.0000   1.0000   1.0000   1.0000
     1.0000   1.0000   1.0000   1.0000   1.0000   1.0000   1.0000   1.0000
     1.0000   1.0000   0.0000   0.0000   0.0000   0.0000   0.0000

          k =-0.5024-0.0962 0.2375 (  1918 PWs)   bands (ev):

  -114.5432-114.5432 -68.7453 -68.7440 -68.7411 -68.7404 -68.7371 -68.7363
    -8.4402  -8.3672   2.9051   2.9642   3.4523   3.5646   3.7512   3.7717
     4.4453   4.4922   4.6367   4.7264   5.2074   5.5143   6.5417   7.1146
     7.3377   7.7487  14.8599  15.6253  17.3576  17.6859  19.0345

     occupation numbers 
     1.0000   1.0000   1.0000   1.0000   1.0000   1.0000   1.0000   1.0000
     1.0000   1.0000   1.0000   1.0000   1.0000   1.0000   1.0000   1.0000
     1.0000   1.0000   1.0000   1.0000   1.0000   1.0000   1.0000   1.0000
     1.0000   1.0000   0.0000   0.0000   0.0000   0.0000   0.0000

          k =-0.4970-0.0962-0.3050 (  1908 PWs)   bands (ev):

  -114.5432-114.5432 -68.7453 -68.7438 -68.7411 -68.7403 -68.7371 -68.7363
    -8.4139  -8.3907   2.8804   2.9105   3.5009   3.5273   3.7273   3.7359
     4.4733   4.4867   4.6717   4.6830   5.3394   5.3895   6.8446   6.8779
     7.5526   7.6455  15.1565  15.2023  17.4918  17.6375  19.1605

     occupation numbers 
     1.0000   1.0000   1.0000   1.0000   1.0000   1.0000   1.0000   1.0000
     1.0000   1.0000   1.0000   1.0000   1.0000   1.0000   1.0000   1.0000
     1.0000   1.0000   1.0000   1.0000   1.0000   1.0000   1.0000   1.0000
     1.0000   1.0000   0.0000   0.0000   0.0000   0.0000   0.0000

          k =-0.4977-0.0962-0.2275 (  1912 PWs)   bands (ev):

  -114.5432-114.5432 -68.7454 -68.7438 -68.7410 -68.7403 -68.7371 -68.7363
    -8.4588  -8.3482   2.8938   2.9782   3.4490   3.5806   3.7414   3.7621
     4.4297   4.4997   4.6342   4.7440   5.2499   5.4744   6.5650   7.0380
     7.3041   7.8288  14.8963  15.5862  17.4346  17.6531  18.9724

     occupation numbers 
     1.0000   1.0000   1.0000   1.0000   1.0000   1.0000   1.0000   1.0000
     1.0000   1.0000   1.0000   1.0000   1.0000   1.0000   1.0000   1.0000
     1.0000   1.0000   1.0000   1.0000   1.0000   1.0000   1.0000   1.0000
     1.0000   1.0000   0.0000   0.0000   0.0000   0.0000   0.0000

          k =-0.4985-0.0962-0.1500 (  1914 PWs)   bands (ev):

  -114.5433-114.5432 -68.7453 -68.7439 -68.7410 -68.7404 -68.7372 -68.7364
    -8.4979  -8.3150   2.9553   3.1109   3.4156   3.6159   3.7942   3.8405
     4.3674   4.4913   4.6180   4.8007   5.1220   5.5812   6.2712   6.7280
     7.4499   7.8356  14.7657  16.0165  17.2624  17.6425  19.1027

     occupation numbers 
     1.0000   1.0000   1.0000   1.0000   1.0000   1.0000   1.0000   1.0000
     1.0000   1.0000   1.0000   1.0000   1.0000   1.0000   1.0000   1.0000
     1.0000   1.0000   1.0000   1.0000   1.0000   1.0000   1.0000   1.0000
     1.0000   1.0000   0.0000   0.0000   0.0000   0.0000   0.0000

          k =-0.4993-0.0962-0.0725 (  1913 PWs)   bands (ev):

  -114.5433-114.5432 -68.7452 -68.7441 -68.7409 -68.7405 -68.7371 -68.7364
    -8.5232  -8.2958   3.0145   3.2351   3.4213   3.6404   3.8760   3.9348
     4.3173   4.4512   4.6175   4.8243   5.0280   5.6223   6.0642   6.4334
     7.5749   7.7706  14.7525  16.3549  17.0724  17.5755  19.4662

     occupation numbers 
     1.0000   1.0000   1.0000   1.0000   1.0000   1.0000   1.0000   1.0000
     1.0000   1.0000   1.0000   1.0000   1.0000   1.0000   1.0000   1.0000
     1.0000   1.0000   1.0000   1.0000   1.0000   1.0000   1.0000   1.0000
     1.0000   1.0000   0.0000   0.0000   0.0000   0.0000   0.0000

          k =-0.5001 0.0000 0.0050 (  1915 PWs)   bands (ev):

  -114.5433-114.5432 -68.7449 -68.7443 -68.7407 -68.7406 -68.7368 -68.7367
    -8.5322  -8.2907   3.1229   3.2199   3.5194   3.5920   3.9537   4.0615
     4.2266   4.3623   4.6217   4.8630   4.9600   5.6872   6.0293   6.1987
     7.5815   7.6556  14.7945  16.5640  17.4332  17.5307  19.9569

     occupation numbers 
     1.0000   1.0000   1.0000   1.0000   1.0000   1.0000   1.0000   1.0000
     1.0000   1.0000   1.0000   1.0000   1.0000   1.0000   1.0000   1.0000
     1.0000   1.0000   1.0000   1.0000   1.0000   1.0000   1.0000   1.0000
     1.0000   1.0000   0.0000   0.0000   0.0000   0.0000   0.0000

          k =-0.5009 0.0000 0.0825 (  1910 PWs)   bands (ev):

  -114.5433-114.5432 -68.7446 -68.7445 -68.7408 -68.7406 -68.7368 -68.7366
    -8.5175  -8.3032   3.1132   3.1801   3.5090   3.5534   3.9296   3.9378
     4.2630   4.4274   4.6192   4.8598   4.9953   5.7215   6.0327   6.3726
     7.5247   7.6841  14.8001  16.4777  17.4502  17.5413  19.6394

     occupation numbers 
     1.0000   1.0000   1.0000   1.0000   1.0000   1.0000   1.0000   1.0000
     1.0000   1.0000   1.0000   1.0000   1.0000   1.0000   1.0000   1.0000
     1.0000   1.0000   1.0000   1.0000   1.0000   1.0000   1.0000   1.0000
     1.0000   1.0000   0.0000   0.0000   0.0000   0.0000   0.0000

          k =-0.5016 0.0000 0.1600 (  1912 PWs)   bands (ev):

  -114.5432-114.5432 -68.7450 -68.7443 -68.7409 -68.7405 -68.7369 -68.7365
    -8.4848  -8.3301   3.0734   3.0814   3.4668   3.4999   3.8042   3.8540
     4.3450   4.4782   4.6205   4.8094   5.1404   5.7243   6.1263   6.7394
     7.3672   7.7588  14.8605  16.2040  17.5115  17.6256  19.1675

     occupation numbers 
     1.0000   1.0000   1.0000   1.0000   1.0000   1.0000   1.0000   1.0000
     1.0000   1.0000   1.0000   1.0000   1.0000   1.0000   1.0000   1.0000
     1.0000   1.0000   1.0000   1.0000   1.0000   1.0000   1.0000   1.0000
     1.0000   1.0000   0.0000   0.0000   0.0000   0.0000   0.0000

          k =-0.5024 0.0000 0.2375 (  1920 PWs)   bands (ev):

  -114.5432-114.5432 -68.7452 -68.7441 -68.7410 -68.7404 -68.7370 -68.7364
    -8.4401  -8.3688   2.9927   2.9945   3.4372   3.4827   3.7442   3.7731
     4.4255   4.4850   4.6419   4.7426   5.3020   5.6273   6.3692   6.9509
     7.3427   7.7460  15.0347  15.8087  17.6077  17.7310  18.8232

     occupation numbers 
     1.0000   1.0000   1.0000   1.0000   1.0000   1.0000   1.0000   1.0000
     1.0000   1.0000   1.0000   1.0000   1.0000   1.0000   1.0000   1.0000
     1.0000   1.0000   1.0000   1.0000   1.0000   1.0000   1.0000   1.0000
     1.0000   1.0000   0.0000   0.0000   0.0000   0.0000   0.0000

          k =-0.4970 0.0000-0.3050 (  1905 PWs)   bands (ev):

  -114.5432-114.5432 -68.7453 -68.7438 -68.7410 -68.7404 -68.7370 -68.7364
    -8.4147  -8.3914   2.9420   2.9707   3.4494   3.4703   3.7280   3.7305
     4.4617   4.4750   4.6815   4.6927   5.4528   5.4947   6.6648   6.6997
     7.5596   7.6541  15.3564  15.3961  17.7118  17.7477  18.7697

     occupation numbers 
     1.0000   1.0000   1.0000   1.0000   1.0000   1.0000   1.0000   1.0000
     1.0000   1.0000   1.0000   1.0000   1.0000   1.0000   1.0000   1.0000
     1.0000   1.0000   1.0000   1.0000   1.0000   1.0000   1.0000   1.0000
     1.0000   1.0000   0.0000   0.0000   0.0000   0.0000   0.0000

          k =-0.4977 0.0000-0.2275 (  1905 PWs)   bands (ev):

  -114.5432-114.5432 -68.7454 -68.7438 -68.7409 -68.7404 -68.7370 -68.7364
    -8.4613  -8.3471   2.9685   3.0219   3.4220   3.5100   3.7375   3.7597
     4.4076   4.4932   4.6399   4.7621   5.3471   5.5902   6.3932   6.8832
     7.2804   7.8395  15.0746  15.7753  17.6522  17.7466  18.7349

     occupation numbers 
     1.0000   1.0000   1.0000   1.0000   1.0000   1.0000   1.0000   1.0000
     1.0000   1.0000   1.0000   1.0000   1.0000   1.0000   1.0000   1.0000
     1.0000   1.0000   1.0000   1.0000   1.0000   1.0000   1.0000   1.0000
     1.0000   1.0000   0.0000   0.0000   0.0000   0.0000   0.0000

          k =-0.4985 0.0000-0.1500 (  1906 PWs)   bands (ev):

  -114.5433-114.5432 -68.7452 -68.7439 -68.7408 -68.7405 -68.7370 -68.7365
    -8.5009  -8.3133   3.0596   3.0959   3.4587   3.5275   3.7916   3.8356
     4.3308   4.4865   4.6213   4.8302   5.1856   5.6993   6.1349   6.6401
     7.3506   7.8385  14.8916  16.1740  17.5419  17.6787  19.0538

     occupation numbers 
     1.0000   1.0000   1.0000   1.0000   1.0000   1.0000   1.0000   1.0000
     1.0000   1.0000   1.0000   1.0000   1.0000   1.0000   1.0000   1.0000
     1.0000   1.0000   1.0000   1.0000   1.0000   1.0000   1.0000   1.0000
     1.0000   1.0000   0.0000   0.0000   0.0000   0.0000   0.0000

          k =-0.4993 0.0000-0.0725 (  1919 PWs)   bands (ev):

  -114.5433-114.5432 -68.7452 -68.7441 -68.7407 -68.7406 -68.7369 -68.7366
    -8.5262  -8.2940   3.1231   3.1660   3.5282   3.5528   3.9145   3.9225
     4.2578   4.4402   4.6192   4.8726   5.0279   5.7193   6.0220   6.3078
     7.5150   7.7327  14.8169  16.4526  17.4645  17.5892  19.5772

     occupation numbers 
     1.0000   1.0000   1.0000   1.0000   1.0000   1.0000   1.0000   1.0000
     1.0000   1.0000   1.0000   1.0000   1.0000   1.0000   1.0000   1.0000
     1.0000   1.0000   1.0000   1.0000   1.0000   1.0000   1.0000   1.0000
     1.0000   1.0000   0.0000   0.0000   0.0000   0.0000   0.0000

     the Fermi energy is     9.4860 ev

     WARNING: integrated charge=    52.00007328, expected=    52.00000000

!    total energy              =   -1006.56817216 Ry
     estimated scf accuracy    <          1.0E-09 Ry
     smearing contrib. (-TS)   =       0.00000077 Ry
     internal energy E=F+TS    =   -1006.56817293 Ry

     The total energy is F=E-TS. E is the sum of the following terms:
     one-electron contribution =    -803.97644164 Ry
     hartree contribution      =     424.15439500 Ry
     xc contribution           =     -99.53032365 Ry
     ewald contribution        =    -508.18781995 Ry
     one-center paw contrib.   =     -19.02798269 Ry
      -> PAW hartree energy AE =      52.90965056 Ry
      -> PAW hartree energy PS =     -52.65824613 Ry
      -> PAW xc energy AE      =     -33.43538373 Ry
      -> PAW xc energy PS      =      14.15599660 Ry
      -> total E_H with PAW    =     424.40579944 Ry
      -> total E_XC with PAW   =    -118.80971077 Ry

     convergence has been achieved in  10 iterations

     Forces acting on atoms (cartesian axes, Ry/au):

     atom    1 type  2   force =    -0.00372575   -0.00014318   -0.00007585
     atom    2 type  2   force =    -0.00372575    0.00014318   -0.00007585
     atom    3 type  1   force =     0.00372575   -0.00016319    0.00007585
     atom    4 type  1   force =     0.00372575    0.00016319    0.00007585
     The non-local contrib.  to forces
     atom    1 type  2   force =    -0.04945603    0.00002715   -0.01240651
     atom    2 type  2   force =    -0.04945603   -0.00002715   -0.01240651
     atom    3 type  1   force =    -0.02345599   -0.00029958    0.00434257
     atom    4 type  1   force =    -0.02345599    0.00029958    0.00434257
     The ionic contribution  to forces
     atom    1 type  2   force =    -0.35066463   -0.00931262    0.08207287
     atom    2 type  2   force =    -0.35066340    0.00931259    0.08207285
     atom    3 type  1   force =     0.35066349   -0.00253099   -0.08207285
     atom    4 type  1   force =     0.35066455    0.00253102   -0.08207286
     The local contribution  to forces
     atom    1 type  2   force =     0.39637590    0.00914166   -0.06974131
     atom    2 type  2   force =     0.39641459   -0.00914165   -0.06974093
     atom    3 type  1   force =    -0.32370895    0.00266406    0.07787246
     atom    4 type  1   force =    -0.32370670   -0.00266408    0.07787248
     The core correction contribution to forces
     atom    1 type  2   force =     0.00000000    0.00000000    0.00000000
     atom    2 type  2   force =     0.00000000    0.00000000    0.00000000
     atom    3 type  1   force =     0.00022535    0.00000333   -0.00006652
     atom    4 type  1   force =     0.00022535   -0.00000333   -0.00006652
     The Hubbard contrib.    to forces
     atom    1 type  2   force =     0.00000000    0.00000000    0.00000000
     atom    2 type  2   force =     0.00000000    0.00000000    0.00000000
     atom    3 type  1   force =     0.00000000    0.00000000    0.00000000
     atom    4 type  1   force =     0.00000000    0.00000000    0.00000000
     The SCF correction term to forces
     atom    1 type  2   force =    -0.00000077    0.00000061   -0.00000378
     atom    2 type  2   force =    -0.00000077   -0.00000061   -0.00000378
     atom    3 type  1   force =     0.00000037   -0.00000000   -0.00000253
     atom    4 type  1   force =     0.00000037    0.00000000   -0.00000253

     Total force =     0.007459     Total SCF correction =     0.000007


     Computing stress (Cartesian axis) and pressure

          total   stress  (Ry/bohr**3)                   (kbar)     P=       54.65
   0.00037065  -0.00000000  -0.00007281           54.53       -0.00      -10.71
   0.00000000   0.00036965  -0.00000000            0.00       54.38       -0.00
  -0.00007281  -0.00000000   0.00037418          -10.71       -0.00       55.04

     kinetic stress (kbar)  35031.74      0.00    -16.18
                               -0.00  35031.84      0.00
                              -16.18      0.00  35061.57

     local   stress (kbar)  -5366.27     -0.00    -45.34
                               -0.00  -5366.16      0.00
                              -45.34      0.00  -9563.72

     nonloc. stress (kbar)   -723.38     -0.00      3.80
                               -0.00   -723.32      0.00
                                3.80      0.00   -736.36

     hartree stress (kbar)  64367.38      0.00     26.19
                                0.00  64367.73      0.00
                               26.19      0.00  66359.95

     exc-cor stress (kbar) -14219.11      0.00      0.28
                                0.00 -14219.11      0.00
                                0.28      0.00 -14219.24

     corecor stress (kbar)   -390.76     -0.00      0.06
                               -0.00   -390.76      0.00
                                0.06      0.00   -390.79

     ewald   stress (kbar) -78645.07      0.00     20.48
                                0.00 -78645.84     -0.00
                               20.48     -0.00 -76456.37

     hubbard stress (kbar)      0.00      0.00      0.00
                                0.00      0.00      0.00
                                0.00      0.00      0.00

     DFT-D   stress (kbar)      0.00      0.00      0.00
                                0.00      0.00      0.00
                                0.00      0.00      0.00

     XDM     stress (kbar)      0.00      0.00      0.00
                                0.00      0.00      0.00
                                0.00      0.00      0.00

     dft-nl  stress (kbar)      0.00      0.00      0.00
                                0.00      0.00      0.00
                                0.00      0.00      0.00

     TS-vdW  stress (kbar)      0.00      0.00      0.00
                                0.00      0.00      0.00
                                0.00      0.00      0.00

     MDB     stress (kbar)      0.00      0.00      0.00
                                0.00      0.00      0.00
                                0.00      0.00      0.00

     3D-RISM stress (kbar)      0.00      0.00      0.00
                                0.00      0.00      0.00
                                0.00      0.00      0.00


     Writing all to output data dir ./temp_hexag/aiida.save/ :
     XML data file, charge density, pseudopotentials, collected wavefunctions

     init_run     :    715.00s CPU     32.28s WALL (       1 calls)
     electrons    :  14351.62s CPU    677.45s WALL (       1 calls)
     forces       :    417.20s CPU     18.01s WALL (       1 calls)
     stress       :    317.23s CPU     13.96s WALL (       1 calls)

     Called by init_run:
     wfcinit      :    710.89s CPU     31.80s WALL (       1 calls)
     wfcinit:atom :     11.78s CPU      0.58s WALL (     320 calls)
     wfcinit:wfcr :    682.38s CPU     29.88s WALL (     320 calls)
     potinit      :      0.96s CPU      0.06s WALL (       1 calls)
     hinit0       :      1.10s CPU      0.23s WALL (       1 calls)

     Called by electrons:
     c_bands      :  12352.86s CPU    591.86s WALL (      10 calls)
     sum_band     :   1977.63s CPU     83.92s WALL (      10 calls)
     v_of_rho     :      5.12s CPU      0.24s WALL (      11 calls)
     v_h          :      0.22s CPU      0.03s WALL (      11 calls)
     v_xc         :      6.74s CPU      0.29s WALL (      13 calls)
     newd         :     12.46s CPU      1.21s WALL (      11 calls)
     PAW_pot      :      3.73s CPU      0.16s WALL (      11 calls)
     mix_rho      :      1.11s CPU      0.06s WALL (      10 calls)

     Called by c_bands:
     init_us_2    :    101.66s CPU      5.57s WALL (    7360 calls)
     cegterg      :  12126.16s CPU    580.17s WALL (    3200 calls)

     Called by sum_band:
     sum_band:wei :      1.39s CPU      0.06s WALL (      10 calls)
     sum_band:loo :   1971.25s CPU     82.64s WALL (      10 calls)
     sum_band:buf :      7.29s CPU      0.41s WALL (    3200 calls)
     sum_band:ini :     39.86s CPU      1.74s WALL (    3200 calls)
     sum_band:cal :    348.88s CPU     14.40s WALL (    3200 calls)
     sum_band:bec :     67.17s CPU      3.09s WALL (    3200 calls)
     addusdens    :      4.48s CPU      1.12s WALL (      10 calls)
                                        0.00s GPU  (      10 calls)
     addusd:skk   :      0.00s CPU      0.00s WALL (      20 calls)
                                        0.00s GPU  (      20 calls)

     Called by *egterg:
     cdiaghg      :    142.56s CPU      9.66s WALL (   11707 calls)
     cegterg:over :    982.29s CPU     41.26s WALL (    8507 calls)
     cegterg:upda :    398.62s CPU     29.49s WALL (    8507 calls)
     cegterg:last :    331.96s CPU     45.11s WALL (    6307 calls)
     h_psi        :   9491.66s CPU    411.64s WALL (   12027 calls)
     s_psi        :    765.52s CPU     39.53s WALL (   12027 calls)
     g_psi        :     79.16s CPU      3.89s WALL (    8507 calls)

     Called by h_psi:
     h_psi:calbec :    866.48s CPU     36.13s WALL (   12027 calls)
     vloc_psi     :   7515.12s CPU    332.04s WALL (   12027 calls)
     add_vuspsi   :   1000.28s CPU     38.13s WALL (   12027 calls)

     General routines
     calbec       :   1388.72s CPU     57.61s WALL (   16827 calls)
     fft          :      5.60s CPU      0.24s WALL (     166 calls)
     ffts         :      0.01s CPU      0.01s WALL (      21 calls)
     fftw         :   3659.18s CPU    163.72s WALL (  601928 calls)
     interpolate  :      0.24s CPU      0.02s WALL (      11 calls)

     Parallel routines

     PAW routines
     PAW_pot      :      3.73s CPU      0.16s WALL (      11 calls)
     PAW_symme    :      0.00s CPU      0.00s WALL (      21 calls)

     PWSCF        :      4h24m CPU  12m25.68s WALL


   This run was terminated on:  23:42:23  14Jun2024            

=------------------------------------------------------------------------------=
   JOB DONE.
=------------------------------------------------------------------------------=
