
     Program PWSCF v.7.3.1 starts on 11Jun2024 at 23:58: 8 

     This program is part of the open-source Quantum ESPRESSO suite
     for quantum simulation of materials; please cite
         "P. Giannozzi et al., J. Phys.:Condens. Matter 21 395502 (2009);
         "P. Giannozzi et al., J. Phys.:Condens. Matter 29 465901 (2017);
         "P. Giannozzi et al., J. Chem. Phys. 152 154105 (2020);
          URL http://www.quantum-espresso.org", 
     in publications or presentations arising from this work. More details at
     http://www.quantum-espresso.org/quote

     Parallel version (MPI & OpenMP), running on      24 processor cores
     Number of MPI processes:                 1
     Threads/MPI process:                    24

     MPI processes distributed on     1 nodes
     4764 MiB available memory on the printing compute node when the environment starts

     Waiting for input...
     Reading input from standard input

     Current dimensions of program PWSCF are:
     Max number of different atomic species (ntypx) = 10
     Max number of k-points (npk) =  40000
     Max angular momentum in pseudopotentials (lmaxx) =  4
     file O.pbe-n-kjpaw_psl.0.1.UPF: wavefunction(s)  2P renormalized
     Message from routine setup:
     using ibrav=0 with symmetry is DISCOURAGED, use correct ibrav instead

     Subspace diagonalization in iterative solution of the eigenvalue problem:
     a serial algorithm will be used


     G-vector sticks info
     --------------------
     sticks:   dense  smooth     PW     G-vecs:    dense   smooth      PW
     Sum         955     475    151                38239    13405    2321

     Using Slab Decomposition



     bravais-lattice index     =            0
     lattice parameter (alat)  =       5.8730  a.u.
     unit-cell volume          =     282.9844 (a.u.)^3
     number of atoms/cell      =            4
     number of atomic types    =            2
     number of electrons       =        52.00
     number of Kohn-Sham states=           31
     kinetic-energy cutoff     =      50.0000  Ry
     charge density cutoff     =     400.0000  Ry
     scf convergence threshold =      2.0E-08
     mixing beta               =       0.4000
     number of iterations used =            8  plain     mixing
     Exchange-correlation= SLA  PW   PBE  PBE
                           (   1   4   3   4   0   0   0)

     celldm(1)=   5.872999  celldm(2)=   0.000000  celldm(3)=   0.000000
     celldm(4)=   0.000000  celldm(5)=   0.000000  celldm(6)=   0.000000

     crystal axes: (cart. coord. in units of alat)
               a(1) = (   1.000000   0.000000   0.000000 )  
               a(2) = (  -0.500000   0.866025   0.000000 )  
               a(3) = (   0.000000   0.000000   1.613066 )  

     reciprocal axes: (cart. coord. in units 2 pi/alat)
               b(1) = (  1.000000  0.577350 -0.000000 )  
               b(2) = (  0.000000  1.154701  0.000000 )  
               b(3) = (  0.000000 -0.000000  0.619937 )  


     PseudoPot. # 1 for O  read from file:
     ../SSSP_1.3.0_PBE_efficiency/O.pbe-n-kjpaw_psl.0.1.UPF
     MD5 check sum: 0234752ac141de4415c5fc33072bef88
     Pseudo is Projector augmented-wave + core cor, Zval =  6.0
     Generated using "atomic" code by A. Dal Corso  v.5.0.99 svn rev. 10869
     Shape of augmentation charge: BESSEL
     Using radial grid of 1095 points,  4 beta functions with: 
                l(1) =   0
                l(2) =   0
                l(3) =   1
                l(4) =   1
     Q(r) pseudized with 0 coefficients 


     PseudoPot. # 2 for Zn read from file:
     ../SSSP_1.3.0_PBE_efficiency/Zn_pbe_v1.uspp.F.UPF
     MD5 check sum: df62231357ef9e81f77b2b3087fa5675
     Pseudo is Ultrasoft, Zval = 20.0
     Generated by new atomic code, or converted to UPF format
     Using radial grid of  943 points,  6 beta functions with: 
                l(1) =   0
                l(2) =   0
                l(3) =   1
                l(4) =   1
                l(5) =   2
                l(6) =   2
     Q(r) pseudized with  8 coefficients,  rinner =    1.100   1.100   1.100
                                                       1.100   1.100

     atomic species   valence    mass     pseudopotential
     O                 6.00    15.99940     O ( 1.00)
     Zn               20.00    65.38000     Zn( 1.00)

     12 Sym. Ops. (no inversion) found ( 6 have fractional translation)


                                    s                        frac. trans.

      isym =  1     identity                                     

 cryst.   s( 1) = (     1          0          0      )
                  (     0          1          0      )
                  (     0          0          1      )

 cart.    s( 1) = (  1.0000000  0.0000000  0.0000000 )
                  (  0.0000000  1.0000000  0.0000000 )
                  (  0.0000000  0.0000000  1.0000000 )


      isym =  2     180 deg rotation - cart. axis [0,0,1]        

 cryst.   s( 2) = (    -1          0          0      )    f =(  0.0000000 )
                  (     0         -1          0      )       (  0.0000000 )
                  (     0          0          1      )       ( -0.5000000 )

 cart.    s( 2) = ( -1.0000000  0.0000000  0.0000000 )    f =(  0.0000000 )
                  (  0.0000000 -1.0000000  0.0000000 )       (  0.0000000 )
                  (  0.0000000  0.0000000  1.0000000 )       ( -0.8065331 )


      isym =  3      60 deg rotation - cryst. axis [0,0,1]       

 cryst.   s( 3) = (     1          1          0      )    f =( -0.0000000 )
                  (    -1          0          0      )       (  0.0000000 )
                  (     0          0          1      )       ( -0.5000000 )

 cart.    s( 3) = (  0.5000000 -0.8660254  0.0000000 )    f =( -0.0000000 )
                  (  0.8660254  0.5000000  0.0000000 )       (  0.0000000 )
                  (  0.0000000  0.0000000  1.0000000 )       ( -0.8065331 )


      isym =  4      60 deg rotation - cryst. axis [0,0,-1]      

 cryst.   s( 4) = (     0         -1          0      )    f =(  0.0000000 )
                  (     1          1          0      )       (  0.0000000 )
                  (     0          0          1      )       ( -0.5000000 )

 cart.    s( 4) = (  0.5000000  0.8660254  0.0000000 )    f =( -0.0000000 )
                  ( -0.8660254  0.5000000  0.0000000 )       (  0.0000000 )
                  (  0.0000000  0.0000000  1.0000000 )       ( -0.8065331 )


      isym =  5     120 deg rotation - cryst. axis [0,0,1]       

 cryst.   s( 5) = (     0          1          0      )
                  (    -1         -1          0      )
                  (     0          0          1      )

 cart.    s( 5) = ( -0.5000000 -0.8660254  0.0000000 )
                  (  0.8660254 -0.5000000  0.0000000 )
                  (  0.0000000  0.0000000  1.0000000 )


      isym =  6     120 deg rotation - cryst. axis [0,0,-1]      

 cryst.   s( 6) = (    -1         -1          0      )
                  (     1          0          0      )
                  (     0          0          1      )

 cart.    s( 6) = ( -0.5000000  0.8660254  0.0000000 )
                  ( -0.8660254 -0.5000000  0.0000000 )
                  (  0.0000000  0.0000000  1.0000000 )


      isym =  7     inv. 180 deg rotation - cart. axis [0,1,0]   

 cryst.   s( 7) = (     1          0          0      )    f =( -0.0000000 )
                  (    -1         -1          0      )       (  0.0000000 )
                  (     0          0          1      )       ( -0.5000000 )

 cart.    s( 7) = (  1.0000000  0.0000000  0.0000000 )    f =( -0.0000000 )
                  (  0.0000000 -1.0000000  0.0000000 )       (  0.0000000 )
                  (  0.0000000  0.0000000  1.0000000 )       ( -0.8065331 )


      isym =  8     inv. 180 deg rotation - cart. axis [1,0,0]   

 cryst.   s( 8) = (    -1          0          0      )
                  (     1          1          0      )
                  (     0          0          1      )

 cart.    s( 8) = ( -1.0000000  0.0000000  0.0000000 )
                  (  0.0000000  1.0000000  0.0000000 )
                  (  0.0000000  0.0000000  1.0000000 )


      isym =  9     inv. 180 deg rotation - cryst. axis [1,-1,0] 

 cryst.   s( 9) = (     0          1          0      )    f =(  0.0000000 )
                  (     1          0          0      )       (  0.0000000 )
                  (     0          0          1      )       ( -0.5000000 )

 cart.    s( 9) = ( -0.5000000  0.8660254  0.0000000 )    f =(  0.0000000 )
                  (  0.8660254  0.5000000  0.0000000 )       (  0.0000000 )
                  (  0.0000000  0.0000000  1.0000000 )       ( -0.8065331 )


      isym = 10     inv. 180 deg rotation - cryst. axis [2,1,0]  

 cryst.   s(10) = (    -1         -1          0      )    f =(  0.0000000 )
                  (     0          1          0      )       (  0.0000000 )
                  (     0          0          1      )       ( -0.5000000 )

 cart.    s(10) = ( -0.5000000 -0.8660254  0.0000000 )    f =( -0.0000000 )
                  ( -0.8660254  0.5000000  0.0000000 )       (  0.0000000 )
                  (  0.0000000  0.0000000  1.0000000 )       ( -0.8065331 )


      isym = 11     inv. 180 deg rotation - cryst. axis [0,1,0]  

 cryst.   s(11) = (     1          1          0      )
                  (     0         -1          0      )
                  (     0          0          1      )

 cart.    s(11) = (  0.5000000  0.8660254  0.0000000 )
                  (  0.8660254 -0.5000000  0.0000000 )
                  (  0.0000000  0.0000000  1.0000000 )


      isym = 12     inv. 180 deg rotation - cryst. axis [1,1,0]  

 cryst.   s(12) = (     0         -1          0      )
                  (    -1          0          0      )
                  (     0          0          1      )

 cart.    s(12) = (  0.5000000 -0.8660254  0.0000000 )
                  ( -0.8660254 -0.5000000  0.0000000 )
                  (  0.0000000  0.0000000  1.0000000 )


   Cartesian axes

     site n.     atom                  positions (alat units)
         1        Zn     tau(   1) = (   0.5000000   0.2886751   0.8074875  )
         2        Zn     tau(   2) = (  -0.0000000   0.5773503   0.0009545  )
         3        O      tau(   3) = (   0.5000000   0.2886751   1.4190438  )
         4        O      tau(   4) = (  -0.0000000   0.5773503   0.6125107  )

   Crystallographic axes

     site n.     atom                  positions (cryst. coord.)
         1        Zn     tau(   1) = (  0.6666667  0.3333333  0.5005917  )
         2        Zn     tau(   2) = (  0.3333333  0.6666667  0.0005917  )
         3        O      tau(   3) = (  0.6666667  0.3333333  0.8797183  )
         4        O      tau(   4) = (  0.3333333  0.6666667  0.3797183  )

     number of k points=    95  Marzari-Vanderbilt smearing, width (Ry)=  0.0147
                       cart. coord. in units 2pi/alat
        k(    1) = (   0.0000000   0.0000000   0.0000000), wk =   0.0017361
        k(    2) = (   0.0000000   0.0000000   0.0774922), wk =   0.0034722
        k(    3) = (   0.0000000   0.0000000   0.1549843), wk =   0.0034722
        k(    4) = (   0.0000000   0.0000000   0.2324765), wk =   0.0034722
        k(    5) = (   0.0000000   0.0000000  -0.3099687), wk =   0.0017361
        k(    6) = (   0.0000000   0.0962250   0.0000000), wk =   0.0104167
        k(    7) = (   0.0000000   0.0962250   0.0774922), wk =   0.0208333
        k(    8) = (   0.0000000   0.0962250   0.1549843), wk =   0.0208333
        k(    9) = (   0.0000000   0.0962250   0.2324765), wk =   0.0208333
        k(   10) = (   0.0000000   0.0962250  -0.3099687), wk =   0.0104167
        k(   11) = (   0.0000000   0.1924501   0.0000000), wk =   0.0104167
        k(   12) = (   0.0000000   0.1924501   0.0774922), wk =   0.0208333
        k(   13) = (   0.0000000   0.1924501   0.1549843), wk =   0.0208333
        k(   14) = (   0.0000000   0.1924501   0.2324765), wk =   0.0208333
        k(   15) = (   0.0000000   0.1924501  -0.3099687), wk =   0.0104167
        k(   16) = (   0.0000000   0.2886751   0.0000000), wk =   0.0104167
        k(   17) = (   0.0000000   0.2886751   0.0774922), wk =   0.0208333
        k(   18) = (   0.0000000   0.2886751   0.1549843), wk =   0.0208333
        k(   19) = (   0.0000000   0.2886751   0.2324765), wk =   0.0208333
        k(   20) = (   0.0000000   0.2886751  -0.3099687), wk =   0.0104167
        k(   21) = (   0.0000000   0.3849002   0.0000000), wk =   0.0104167
        k(   22) = (   0.0000000   0.3849002   0.0774922), wk =   0.0208333
        k(   23) = (   0.0000000   0.3849002   0.1549843), wk =   0.0208333
        k(   24) = (   0.0000000   0.3849002   0.2324765), wk =   0.0208333
        k(   25) = (   0.0000000   0.3849002  -0.3099687), wk =   0.0104167
        k(   26) = (   0.0000000   0.4811252   0.0000000), wk =   0.0104167
        k(   27) = (   0.0000000   0.4811252   0.0774922), wk =   0.0208333
        k(   28) = (   0.0000000   0.4811252   0.1549843), wk =   0.0208333
        k(   29) = (   0.0000000   0.4811252   0.2324765), wk =   0.0208333
        k(   30) = (   0.0000000   0.4811252  -0.3099687), wk =   0.0104167
        k(   31) = (   0.0000000  -0.5773503   0.0000000), wk =   0.0052083
        k(   32) = (   0.0000000  -0.5773503   0.0774922), wk =   0.0104167
        k(   33) = (   0.0000000  -0.5773503   0.1549843), wk =   0.0104167
        k(   34) = (   0.0000000  -0.5773503   0.2324765), wk =   0.0104167
        k(   35) = (   0.0000000  -0.5773503  -0.3099687), wk =   0.0052083
        k(   36) = (   0.0833333   0.1443376   0.0000000), wk =   0.0104167
        k(   37) = (   0.0833333   0.1443376   0.0774922), wk =   0.0208333
        k(   38) = (   0.0833333   0.1443376   0.1549843), wk =   0.0208333
        k(   39) = (   0.0833333   0.1443376   0.2324765), wk =   0.0208333
        k(   40) = (   0.0833333   0.1443376  -0.3099687), wk =   0.0104167
        k(   41) = (   0.0833333   0.2405626   0.0000000), wk =   0.0208333
        k(   42) = (   0.0833333   0.2405626   0.0774922), wk =   0.0416667
        k(   43) = (   0.0833333   0.2405626   0.1549843), wk =   0.0416667
        k(   44) = (   0.0833333   0.2405626   0.2324765), wk =   0.0416667
        k(   45) = (   0.0833333   0.2405626  -0.3099687), wk =   0.0208333
        k(   46) = (   0.0833333   0.3367877   0.0000000), wk =   0.0208333
        k(   47) = (   0.0833333   0.3367877   0.0774922), wk =   0.0416667
        k(   48) = (   0.0833333   0.3367877   0.1549843), wk =   0.0416667
        k(   49) = (   0.0833333   0.3367877   0.2324765), wk =   0.0416667
        k(   50) = (   0.0833333   0.3367877  -0.3099687), wk =   0.0208333
        k(   51) = (   0.0833333   0.4330127   0.0000000), wk =   0.0208333
        k(   52) = (   0.0833333   0.4330127   0.0774922), wk =   0.0416667
        k(   53) = (   0.0833333   0.4330127   0.1549843), wk =   0.0416667
        k(   54) = (   0.0833333   0.4330127   0.2324765), wk =   0.0416667
        k(   55) = (   0.0833333   0.4330127  -0.3099687), wk =   0.0208333
        k(   56) = (   0.0833333   0.5292377   0.0000000), wk =   0.0208333
        k(   57) = (   0.0833333   0.5292377   0.0774922), wk =   0.0416667
        k(   58) = (   0.0833333   0.5292377   0.1549843), wk =   0.0416667
        k(   59) = (   0.0833333   0.5292377   0.2324765), wk =   0.0416667
        k(   60) = (   0.0833333   0.5292377  -0.3099687), wk =   0.0208333
        k(   61) = (   0.1666667   0.2886751   0.0000000), wk =   0.0104167
        k(   62) = (   0.1666667   0.2886751   0.0774922), wk =   0.0208333
        k(   63) = (   0.1666667   0.2886751   0.1549843), wk =   0.0208333
        k(   64) = (   0.1666667   0.2886751   0.2324765), wk =   0.0208333
        k(   65) = (   0.1666667   0.2886751  -0.3099687), wk =   0.0104167
        k(   66) = (   0.1666667   0.3849002   0.0000000), wk =   0.0208333
        k(   67) = (   0.1666667   0.3849002   0.0774922), wk =   0.0416667
        k(   68) = (   0.1666667   0.3849002   0.1549843), wk =   0.0416667
        k(   69) = (   0.1666667   0.3849002   0.2324765), wk =   0.0416667
        k(   70) = (   0.1666667   0.3849002  -0.3099687), wk =   0.0208333
        k(   71) = (   0.1666667   0.4811252   0.0000000), wk =   0.0208333
        k(   72) = (   0.1666667   0.4811252   0.0774922), wk =   0.0416667
        k(   73) = (   0.1666667   0.4811252   0.1549843), wk =   0.0416667
        k(   74) = (   0.1666667   0.4811252   0.2324765), wk =   0.0416667
        k(   75) = (   0.1666667   0.4811252  -0.3099687), wk =   0.0208333
        k(   76) = (   0.1666667   0.5773503   0.0000000), wk =   0.0104167
        k(   77) = (   0.1666667   0.5773503   0.0774922), wk =   0.0208333
        k(   78) = (   0.1666667   0.5773503   0.1549843), wk =   0.0208333
        k(   79) = (   0.1666667   0.5773503   0.2324765), wk =   0.0208333
        k(   80) = (   0.1666667   0.5773503  -0.3099687), wk =   0.0104167
        k(   81) = (   0.2500000   0.4330127   0.0000000), wk =   0.0104167
        k(   82) = (   0.2500000   0.4330127   0.0774922), wk =   0.0208333
        k(   83) = (   0.2500000   0.4330127   0.1549843), wk =   0.0208333
        k(   84) = (   0.2500000   0.4330127   0.2324765), wk =   0.0208333
        k(   85) = (   0.2500000   0.4330127  -0.3099687), wk =   0.0104167
        k(   86) = (   0.2500000   0.5292377   0.0000000), wk =   0.0208333
        k(   87) = (   0.2500000   0.5292377   0.0774922), wk =   0.0416667
        k(   88) = (   0.2500000   0.5292377   0.1549843), wk =   0.0416667
        k(   89) = (   0.2500000   0.5292377   0.2324765), wk =   0.0416667
        k(   90) = (   0.2500000   0.5292377  -0.3099687), wk =   0.0208333
        k(   91) = (   0.3333333   0.5773503   0.0000000), wk =   0.0034722
        k(   92) = (   0.3333333   0.5773503   0.0774922), wk =   0.0069444
        k(   93) = (   0.3333333   0.5773503   0.1549843), wk =   0.0069444
        k(   94) = (   0.3333333   0.5773503   0.2324765), wk =   0.0069444
        k(   95) = (   0.3333333   0.5773503  -0.3099687), wk =   0.0034722

                       cryst. coord.
        k(    1) = (   0.0000000   0.0000000   0.0000000), wk =   0.0017361
        k(    2) = (   0.0000000   0.0000000   0.1250000), wk =   0.0034722
        k(    3) = (   0.0000000   0.0000000   0.2500000), wk =   0.0034722
        k(    4) = (   0.0000000   0.0000000   0.3750000), wk =   0.0034722
        k(    5) = (   0.0000000   0.0000000  -0.5000000), wk =   0.0017361
        k(    6) = (   0.0000000   0.0833333   0.0000000), wk =   0.0104167
        k(    7) = (   0.0000000   0.0833333   0.1250000), wk =   0.0208333
        k(    8) = (   0.0000000   0.0833333   0.2500000), wk =   0.0208333
        k(    9) = (   0.0000000   0.0833333   0.3750000), wk =   0.0208333
        k(   10) = (   0.0000000   0.0833333  -0.5000000), wk =   0.0104167
        k(   11) = (   0.0000000   0.1666667   0.0000000), wk =   0.0104167
        k(   12) = (   0.0000000   0.1666667   0.1250000), wk =   0.0208333
        k(   13) = (   0.0000000   0.1666667   0.2500000), wk =   0.0208333
        k(   14) = (   0.0000000   0.1666667   0.3750000), wk =   0.0208333
        k(   15) = (   0.0000000   0.1666667  -0.5000000), wk =   0.0104167
        k(   16) = (   0.0000000   0.2500000   0.0000000), wk =   0.0104167
        k(   17) = (   0.0000000   0.2500000   0.1250000), wk =   0.0208333
        k(   18) = (   0.0000000   0.2500000   0.2500000), wk =   0.0208333
        k(   19) = (   0.0000000   0.2500000   0.3750000), wk =   0.0208333
        k(   20) = (   0.0000000   0.2500000  -0.5000000), wk =   0.0104167
        k(   21) = (   0.0000000   0.3333333   0.0000000), wk =   0.0104167
        k(   22) = (   0.0000000   0.3333333   0.1250000), wk =   0.0208333
        k(   23) = (   0.0000000   0.3333333   0.2500000), wk =   0.0208333
        k(   24) = (   0.0000000   0.3333333   0.3750000), wk =   0.0208333
        k(   25) = (   0.0000000   0.3333333  -0.5000000), wk =   0.0104167
        k(   26) = (   0.0000000   0.4166667   0.0000000), wk =   0.0104167
        k(   27) = (   0.0000000   0.4166667   0.1250000), wk =   0.0208333
        k(   28) = (   0.0000000   0.4166667   0.2500000), wk =   0.0208333
        k(   29) = (   0.0000000   0.4166667   0.3750000), wk =   0.0208333
        k(   30) = (   0.0000000   0.4166667  -0.5000000), wk =   0.0104167
        k(   31) = (   0.0000000  -0.5000000   0.0000000), wk =   0.0052083
        k(   32) = (   0.0000000  -0.5000000   0.1250000), wk =   0.0104167
        k(   33) = (   0.0000000  -0.5000000   0.2500000), wk =   0.0104167
        k(   34) = (   0.0000000  -0.5000000   0.3750000), wk =   0.0104167
        k(   35) = (   0.0000000  -0.5000000  -0.5000000), wk =   0.0052083
        k(   36) = (   0.0833333   0.0833333   0.0000000), wk =   0.0104167
        k(   37) = (   0.0833333   0.0833333   0.1250000), wk =   0.0208333
        k(   38) = (   0.0833333   0.0833333   0.2500000), wk =   0.0208333
        k(   39) = (   0.0833333   0.0833333   0.3750000), wk =   0.0208333
        k(   40) = (   0.0833333   0.0833333  -0.5000000), wk =   0.0104167
        k(   41) = (   0.0833333   0.1666667   0.0000000), wk =   0.0208333
        k(   42) = (   0.0833333   0.1666667   0.1250000), wk =   0.0416667
        k(   43) = (   0.0833333   0.1666667   0.2500000), wk =   0.0416667
        k(   44) = (   0.0833333   0.1666667   0.3750000), wk =   0.0416667
        k(   45) = (   0.0833333   0.1666667  -0.5000000), wk =   0.0208333
        k(   46) = (   0.0833333   0.2500000   0.0000000), wk =   0.0208333
        k(   47) = (   0.0833333   0.2500000   0.1250000), wk =   0.0416667
        k(   48) = (   0.0833333   0.2500000   0.2500000), wk =   0.0416667
        k(   49) = (   0.0833333   0.2500000   0.3750000), wk =   0.0416667
        k(   50) = (   0.0833333   0.2500000  -0.5000000), wk =   0.0208333
        k(   51) = (   0.0833333   0.3333333   0.0000000), wk =   0.0208333
        k(   52) = (   0.0833333   0.3333333   0.1250000), wk =   0.0416667
        k(   53) = (   0.0833333   0.3333333   0.2500000), wk =   0.0416667
        k(   54) = (   0.0833333   0.3333333   0.3750000), wk =   0.0416667
        k(   55) = (   0.0833333   0.3333333  -0.5000000), wk =   0.0208333
        k(   56) = (   0.0833333   0.4166667   0.0000000), wk =   0.0208333
        k(   57) = (   0.0833333   0.4166667   0.1250000), wk =   0.0416667
        k(   58) = (   0.0833333   0.4166667   0.2500000), wk =   0.0416667
        k(   59) = (   0.0833333   0.4166667   0.3750000), wk =   0.0416667
        k(   60) = (   0.0833333   0.4166667  -0.5000000), wk =   0.0208333
        k(   61) = (   0.1666667   0.1666667   0.0000000), wk =   0.0104167
        k(   62) = (   0.1666667   0.1666667   0.1250000), wk =   0.0208333
        k(   63) = (   0.1666667   0.1666667   0.2500000), wk =   0.0208333
        k(   64) = (   0.1666667   0.1666667   0.3750000), wk =   0.0208333
        k(   65) = (   0.1666667   0.1666667  -0.5000000), wk =   0.0104167
        k(   66) = (   0.1666667   0.2500000   0.0000000), wk =   0.0208333
        k(   67) = (   0.1666667   0.2500000   0.1250000), wk =   0.0416667
        k(   68) = (   0.1666667   0.2500000   0.2500000), wk =   0.0416667
        k(   69) = (   0.1666667   0.2500000   0.3750000), wk =   0.0416667
        k(   70) = (   0.1666667   0.2500000  -0.5000000), wk =   0.0208333
        k(   71) = (   0.1666667   0.3333333   0.0000000), wk =   0.0208333
        k(   72) = (   0.1666667   0.3333333   0.1250000), wk =   0.0416667
        k(   73) = (   0.1666667   0.3333333   0.2500000), wk =   0.0416667
        k(   74) = (   0.1666667   0.3333333   0.3750000), wk =   0.0416667
        k(   75) = (   0.1666667   0.3333333  -0.5000000), wk =   0.0208333
        k(   76) = (   0.1666667   0.4166667   0.0000000), wk =   0.0104167
        k(   77) = (   0.1666667   0.4166667   0.1250000), wk =   0.0208333
        k(   78) = (   0.1666667   0.4166667   0.2500000), wk =   0.0208333
        k(   79) = (   0.1666667   0.4166667   0.3750000), wk =   0.0208333
        k(   80) = (   0.1666667   0.4166667  -0.5000000), wk =   0.0104167
        k(   81) = (   0.2500000   0.2500000   0.0000000), wk =   0.0104167
        k(   82) = (   0.2500000   0.2500000   0.1250000), wk =   0.0208333
        k(   83) = (   0.2500000   0.2500000   0.2500000), wk =   0.0208333
        k(   84) = (   0.2500000   0.2500000   0.3750000), wk =   0.0208333
        k(   85) = (   0.2500000   0.2500000  -0.5000000), wk =   0.0104167
        k(   86) = (   0.2500000   0.3333333   0.0000000), wk =   0.0208333
        k(   87) = (   0.2500000   0.3333333   0.1250000), wk =   0.0416667
        k(   88) = (   0.2500000   0.3333333   0.2500000), wk =   0.0416667
        k(   89) = (   0.2500000   0.3333333   0.3750000), wk =   0.0416667
        k(   90) = (   0.2500000   0.3333333  -0.5000000), wk =   0.0208333
        k(   91) = (   0.3333333   0.3333333   0.0000000), wk =   0.0034722
        k(   92) = (   0.3333333   0.3333333   0.1250000), wk =   0.0069444
        k(   93) = (   0.3333333   0.3333333   0.2500000), wk =   0.0069444
        k(   94) = (   0.3333333   0.3333333   0.3750000), wk =   0.0069444
        k(   95) = (   0.3333333   0.3333333  -0.5000000), wk =   0.0034722

     Dense  grid:    38239 G-vectors     FFT dimensions: (  40,  40,  64)

     Smooth grid:    13405 G-vectors     FFT dimensions: (  27,  27,  48)

     Dynamical RAM for                 wfc:       0.80 MB

     Dynamical RAM for     wfc (w. buffer):      76.74 MB

     Dynamical RAM for           str. fact:       1.17 MB

     Dynamical RAM for           local pot:       0.00 MB

     Dynamical RAM for          nlocal pot:       1.34 MB

     Dynamical RAM for                qrad:       3.21 MB

     Dynamical RAM for          rho,v,vnew:       4.09 MB

     Dynamical RAM for               rhoin:       1.36 MB

     Dynamical RAM for            rho*nmix:       9.34 MB

     Dynamical RAM for           G-vectors:       2.29 MB

     Dynamical RAM for          h,s,v(r/c):       0.18 MB

     Dynamical RAM for          <psi|beta>:       0.02 MB

     Dynamical RAM for                 psi:       1.60 MB

     Dynamical RAM for                hpsi:       1.60 MB

     Dynamical RAM for                spsi:       1.60 MB

     Dynamical RAM for      wfcinit/wfcrot:       1.78 MB

     Dynamical RAM for           addusdens:     109.69 MB

     Dynamical RAM for          addusforce:     111.16 MB

     Dynamical RAM for         addusstress:     117.28 MB

     Estimated static dynamical RAM per process >      95.87 MB

     Estimated max dynamical RAM per process >     222.48 MB

     Check: negative core charge=   -0.000003

     Initial potential from superposition of free atoms

     starting charge      51.9997, renormalised to      52.0000
     Starting wfcs are   34 randomized atomic wfcs
     Checking if some PAW data can be deallocated... 

     total cpu time spent up to now is       11.2 secs

     Self-consistent Calculation

     iteration #  1     ecut=    50.00 Ry     beta= 0.40
     Davidson diagonalization with overlap

---- Real-time Memory Report at c_bands before calling an iterative solver
           159 MiB given to the printing process from OS
             0 MiB allocation reported by mallinfo(arena+hblkhd)
          4619 MiB available memory on the node where the printing process lives
------------------
     ethr =  1.00E-02,  avg # of iterations =  3.0

     total cpu time spent up to now is       30.2 secs

     total energy              =   -1006.29718496 Ry
     estimated scf accuracy    <       0.82680199 Ry

     iteration #  2     ecut=    50.00 Ry     beta= 0.40
     Davidson diagonalization with overlap

---- Real-time Memory Report at c_bands before calling an iterative solver
           266 MiB given to the printing process from OS
             0 MiB allocation reported by mallinfo(arena+hblkhd)
          4576 MiB available memory on the node where the printing process lives
------------------
     ethr =  1.59E-03,  avg # of iterations =  2.0

     total cpu time spent up to now is       50.4 secs

     WARNING: integrated charge=    52.00001344, expected=    52.00000000

     total energy              =   -1006.51592143 Ry
     estimated scf accuracy    <       0.07181902 Ry

     iteration #  3     ecut=    50.00 Ry     beta= 0.40
     Davidson diagonalization with overlap

---- Real-time Memory Report at c_bands before calling an iterative solver
           267 MiB given to the printing process from OS
             0 MiB allocation reported by mallinfo(arena+hblkhd)
          4576 MiB available memory on the node where the printing process lives
------------------
     ethr =  1.38E-04,  avg # of iterations =  2.8

     total cpu time spent up to now is       70.3 secs

     WARNING: integrated charge=    52.00001651, expected=    52.00000000

     total energy              =   -1006.52530577 Ry
     estimated scf accuracy    <       0.00820325 Ry

     iteration #  4     ecut=    50.00 Ry     beta= 0.40
     Davidson diagonalization with overlap

---- Real-time Memory Report at c_bands before calling an iterative solver
           267 MiB given to the printing process from OS
             0 MiB allocation reported by mallinfo(arena+hblkhd)
          4575 MiB available memory on the node where the printing process lives
------------------
     ethr =  1.58E-05,  avg # of iterations =  3.1

     total cpu time spent up to now is       87.4 secs

     WARNING: integrated charge=    52.00001265, expected=    52.00000000

     total energy              =   -1006.52538971 Ry
     estimated scf accuracy    <       0.00190207 Ry

     iteration #  5     ecut=    50.00 Ry     beta= 0.40
     Davidson diagonalization with overlap

---- Real-time Memory Report at c_bands before calling an iterative solver
           268 MiB given to the printing process from OS
             0 MiB allocation reported by mallinfo(arena+hblkhd)
          4574 MiB available memory on the node where the printing process lives
------------------
     ethr =  3.66E-06,  avg # of iterations =  1.9

     total cpu time spent up to now is      105.0 secs

     WARNING: integrated charge=    52.00000909, expected=    52.00000000

     total energy              =   -1006.52548292 Ry
     estimated scf accuracy    <       0.00002866 Ry

     iteration #  6     ecut=    50.00 Ry     beta= 0.40
     Davidson diagonalization with overlap

---- Real-time Memory Report at c_bands before calling an iterative solver
           268 MiB given to the printing process from OS
             0 MiB allocation reported by mallinfo(arena+hblkhd)
          4572 MiB available memory on the node where the printing process lives
------------------
     ethr =  5.51E-08,  avg # of iterations =  3.1

     total cpu time spent up to now is      131.9 secs

     WARNING: integrated charge=    52.00000915, expected=    52.00000000

     total energy              =   -1006.52548997 Ry
     estimated scf accuracy    <       0.00005613 Ry

     iteration #  7     ecut=    50.00 Ry     beta= 0.40
     Davidson diagonalization with overlap

---- Real-time Memory Report at c_bands before calling an iterative solver
           269 MiB given to the printing process from OS
             0 MiB allocation reported by mallinfo(arena+hblkhd)
          4614 MiB available memory on the node where the printing process lives
------------------
     ethr =  5.51E-08,  avg # of iterations =  2.0

     total cpu time spent up to now is      150.4 secs

     WARNING: integrated charge=    52.00000897, expected=    52.00000000

     total energy              =   -1006.52549833 Ry
     estimated scf accuracy    <       0.00000077 Ry

     iteration #  8     ecut=    50.00 Ry     beta= 0.40
     Davidson diagonalization with overlap

---- Real-time Memory Report at c_bands before calling an iterative solver
           269 MiB given to the printing process from OS
             0 MiB allocation reported by mallinfo(arena+hblkhd)
          4611 MiB available memory on the node where the printing process lives
------------------
     ethr =  1.48E-09,  avg # of iterations =  2.0

     total cpu time spent up to now is      171.4 secs

     WARNING: integrated charge=    52.00000898, expected=    52.00000000

     total energy              =   -1006.52549844 Ry
     estimated scf accuracy    <       0.00000018 Ry

     iteration #  9     ecut=    50.00 Ry     beta= 0.40
     Davidson diagonalization with overlap

---- Real-time Memory Report at c_bands before calling an iterative solver
           269 MiB given to the printing process from OS
             0 MiB allocation reported by mallinfo(arena+hblkhd)
          4614 MiB available memory on the node where the printing process lives
------------------
     ethr =  3.45E-10,  avg # of iterations =  2.0

     total cpu time spent up to now is      190.7 secs

     WARNING: integrated charge=    52.00000897, expected=    52.00000000

     total energy              =   -1006.52549854 Ry
     estimated scf accuracy    <       0.00000002 Ry

     iteration # 10     ecut=    50.00 Ry     beta= 0.40
     Davidson diagonalization with overlap

---- Real-time Memory Report at c_bands before calling an iterative solver
           270 MiB given to the printing process from OS
             0 MiB allocation reported by mallinfo(arena+hblkhd)
          4613 MiB available memory on the node where the printing process lives
------------------
     ethr =  4.52E-11,  avg # of iterations =  2.0

     total cpu time spent up to now is      211.8 secs

     End of self-consistent calculation

          k = 0.0000 0.0000 0.0000 (  1725 PWs)   bands (ev):

  -112.5710-112.5706 -66.7804 -66.7746 -66.7734 -66.7734 -66.7723 -66.7723
    -8.1123  -7.1697   4.3899   4.6580   4.6580   4.7202   4.8933   4.8933
     6.2448   6.2448   6.5246   6.5246   6.8573  10.1483  10.1483  10.9618
    11.0995  11.0995  12.0696  16.8060  19.7097  24.6799  24.6799

     occupation numbers 
     1.0000   1.0000   1.0000   1.0000   1.0000   1.0000   1.0000   1.0000
     1.0000   1.0000   1.0000   1.0000   1.0000   1.0000   1.0000   1.0000
     1.0000   1.0000   1.0000   1.0000   1.0000   1.0000   1.0000   1.0000
     1.0004   1.0004   0.0028   0.0000   0.0000   0.0000   0.0000

          k = 0.0000 0.0000 0.0775 (  1725 PWs)   bands (ev):

  -112.5710-112.5706 -66.7801 -66.7749 -66.7732 -66.7732 -66.7724 -66.7724
    -8.0789  -7.2082   4.3485   4.6626   4.6626   4.6772   4.8793   4.8793
     6.2595   6.2595   6.5188   6.5188   7.0321  10.1848  10.1848  10.6185
    11.0639  11.0639  12.4708  16.6487  19.8424  24.6755  24.6756

     occupation numbers 
     1.0000   1.0000   1.0000   1.0000   1.0000   1.0000   1.0000   1.0000
     1.0000   1.0000   1.0000   1.0000   1.0000   1.0000   1.0000   1.0000
     1.0000   1.0000   1.0000   1.0000   1.0000   1.0000   1.0000   1.0000
     1.0002   1.0002   0.0000   0.0000   0.0000   0.0000   0.0000

          k = 0.0000 0.0000 0.1550 (  1713 PWs)   bands (ev):

  -112.5710-112.5707 -66.7795 -66.7754 -66.7731 -66.7731 -66.7724 -66.7724
    -7.9826  -7.3165   4.2773   4.5649   4.6774   4.6774   4.8422   4.8422
     6.2997   6.2997   6.4996   6.4996   7.4852  10.0293  10.2887  10.2887
    10.9622  10.9622  13.2109  16.2186  20.2210  23.9773  24.6887

     occupation numbers 
     1.0000   1.0000   1.0000   1.0000   1.0000   1.0000   1.0000   1.0000
     1.0000   1.0000   1.0000   1.0000   1.0000   1.0000   1.0000   1.0000
     1.0000   1.0000   1.0000   1.0000   1.0000   1.0000   1.0000   1.0000
     1.0000   1.0000   0.0000   0.0000   0.0000   0.0000   0.0000

          k = 0.0000 0.0000 0.2325 (  1708 PWs)   bands (ev):

  -112.5709-112.5707 -66.7784 -66.7763 -66.7729 -66.7729 -66.7726 -66.7726
    -7.8357  -7.4753   4.2541   4.4252   4.7045   4.7045   4.7931   4.7931
     6.3555   6.3555   6.4645   6.4645   8.0888   9.3989  10.4442  10.4442
    10.8090  10.8090  14.0285  15.5936  20.8270  22.7351  24.7731

     occupation numbers 
     1.0000   1.0000   1.0000   1.0000   1.0000   1.0000   1.0000   1.0000
     1.0000   1.0000   1.0000   1.0000   1.0000   1.0000   1.0000   1.0000
     1.0000   1.0000   1.0000   1.0000   1.0000   1.0000   1.0000   1.0000
     1.0000   1.0000   0.0000   0.0000   0.0000   0.0000   0.0000

          k = 0.0000 0.0000-0.3100 (  1654 PWs)   bands (ev):

  -112.5708-112.5708 -66.7770 -66.7770 -66.7726 -66.7726 -66.7726 -66.7726
    -7.6580  -7.6580   4.3083   4.3083   4.7444   4.7444   4.7444   4.7444
     6.4143   6.4143   6.4143   6.4143   8.7453   8.7453  10.6271  10.6271
    10.6271  10.6271  14.8432  14.8432  21.6659  21.6659  24.9678

     occupation numbers 
     1.0000   1.0000   1.0000   1.0000   1.0000   1.0000   1.0000   1.0000
     1.0000   1.0000   1.0000   1.0000   1.0000   1.0000   1.0000   1.0000
     1.0000   1.0000   1.0000   1.0000   1.0000   1.0000   1.0000   1.0000
     1.0000   1.0000   0.0000   0.0000   0.0000   0.0000   0.0000

          k = 0.0000 0.0962 0.0000 (  1723 PWs)   bands (ev):

  -112.5710-112.5706 -66.7803 -66.7747 -66.7735 -66.7733 -66.7726 -66.7724
    -8.0627  -7.1472   4.4514   4.6020   4.6851   4.7509   4.8829   4.9308
     6.2217   6.2410   6.5295   6.5488   6.8482   9.8700  10.0384  10.6406
    10.9092  11.0400  12.6235  17.1296  19.6932  23.8259  24.7653

     occupation numbers 
     1.0000   1.0000   1.0000   1.0000   1.0000   1.0000   1.0000   1.0000
     1.0000   1.0000   1.0000   1.0000   1.0000   1.0000   1.0000   1.0000
     1.0000   1.0000   1.0000   1.0000   1.0000   1.0000   1.0000   1.0000
     1.0000   1.0001   0.0000   0.0000   0.0000   0.0000   0.0000

          k = 0.0000 0.0962 0.0775 (  1717 PWs)   bands (ev):

  -112.5710-112.5706 -66.7801 -66.7749 -66.7734 -66.7733 -66.7726 -66.7724
    -8.0300  -7.1843   4.3961   4.5796   4.6901   4.7343   4.8763   4.9164
     6.2386   6.2557   6.5229   6.5375   7.0327   9.9072  10.0771  10.4065
    10.8997  11.0026  12.8875  16.9543  19.8340  23.8528  24.7612

     occupation numbers 
     1.0000   1.0000   1.0000   1.0000   1.0000   1.0000   1.0000   1.0000
     1.0000   1.0000   1.0000   1.0000   1.0000   1.0000   1.0000   1.0000
     1.0000   1.0000   1.0000   1.0000   1.0000   1.0000   1.0000   1.0000
     1.0000   1.0000   0.0000   0.0000   0.0000   0.0000   0.0000

          k = 0.0000 0.0962 0.1550 (  1703 PWs)   bands (ev):

  -112.5709-112.5707 -66.7793 -66.7754 -66.7733 -66.7731 -66.7727 -66.7725
    -7.9360  -7.2889   4.2979   4.4996   4.7061   4.7188   4.8498   4.8781
     6.2844   6.2960   6.5018   6.5116   7.4987   9.9097  10.0433  10.1872
    10.7938  10.8959  13.5055  16.4885  20.2235  23.8031  24.1551

     occupation numbers 
     1.0000   1.0000   1.0000   1.0000   1.0000   1.0000   1.0000   1.0000
     1.0000   1.0000   1.0000   1.0000   1.0000   1.0000   1.0000   1.0000
     1.0000   1.0000   1.0000   1.0000   1.0000   1.0000   1.0000   1.0000
     1.0000   1.0000   0.0000   0.0000   0.0000   0.0000   0.0000

          k = 0.0000 0.0962 0.2325 (  1704 PWs)   bands (ev):

  -112.5709-112.5707 -66.7784 -66.7763 -66.7732 -66.7729 -66.7728 -66.7726
    -7.7928  -7.4427   4.2494   4.3811   4.7314   4.7349   4.8078   4.8274
     6.3470   6.3523   6.4643   6.4700   8.1062   9.3659  10.1963  10.3513
    10.6130  10.7351  14.2702  15.8340  20.8298  22.7083  24.1929

     occupation numbers 
     1.0000   1.0000   1.0000   1.0000   1.0000   1.0000   1.0000   1.0000
     1.0000   1.0000   1.0000   1.0000   1.0000   1.0000   1.0000   1.0000
     1.0000   1.0000   1.0000   1.0000   1.0000   1.0000   1.0000   1.0000
     1.0000   1.0000   0.0000   0.0000   0.0000   0.0000   0.0000

          k = 0.0000 0.0962-0.3100 (  1694 PWs)   bands (ev):

  -112.5708-112.5708 -66.7773 -66.7773 -66.7730 -66.7730 -66.7728 -66.7728
    -7.6200  -7.6200   4.2825   4.2825   4.7643   4.7643   4.7767   4.7767
     6.4121   6.4121   6.4129   6.4129   8.7499   8.7499  10.4012  10.4012
    10.5439  10.5439  15.0714  15.0714  21.6582  21.6582  24.4567

     occupation numbers 
     1.0000   1.0000   1.0000   1.0000   1.0000   1.0000   1.0000   1.0000
     1.0000   1.0000   1.0000   1.0000   1.0000   1.0000   1.0000   1.0000
     1.0000   1.0000   1.0000   1.0000   1.0000   1.0000   1.0000   1.0000
     1.0000   1.0000   0.0000   0.0000   0.0000   0.0000   0.0000

          k = 0.0000 0.1925 0.0000 (  1701 PWs)   bands (ev):

  -112.5709-112.5706 -66.7799 -66.7749 -66.7741 -66.7735 -66.7732 -66.7724
    -7.9225  -7.0871   4.4192   4.6674   4.7568   4.7884   4.9152   5.0389
     6.1596   6.2416   6.5409   6.6040   6.8392   9.1618   9.7392   9.9836
    10.7454  10.8713  13.5653  17.9234  19.6329  22.4264  24.4584

     occupation numbers 
     1.0000   1.0000   1.0000   1.0000   1.0000   1.0000   1.0000   1.0000
     1.0000   1.0000   1.0000   1.0000   1.0000   1.0000   1.0000   1.0000
     1.0000   1.0000   1.0000   1.0000   1.0000   1.0000   1.0000   1.0000
     1.0000   1.0000   0.0000   0.0000   0.0000   0.0000   0.0000

          k = 0.0000 0.1925 0.0775 (  1706 PWs)   bands (ev):

  -112.5709-112.5706 -66.7797 -66.7751 -66.7741 -66.7735 -66.7733 -66.7726
    -7.8922  -7.1203   4.3884   4.5544   4.7633   4.8045   4.9191   5.0230
     6.1839   6.2556   6.5325   6.5824   7.0455   9.2031   9.7838   9.8782
    10.7016  10.8296  13.7275  17.6834  19.8088  22.4706  24.3548

     occupation numbers 
     1.0000   1.0000   1.0000   1.0000   1.0000   1.0000   1.0000   1.0000
     1.0000   1.0000   1.0000   1.0000   1.0000   1.0000   1.0000   1.0000
     1.0000   1.0000   1.0000   1.0000   1.0000   1.0000   1.0000   1.0000
     1.0000   1.0000   0.0000   0.0000   0.0000   0.0000   0.0000

          k = 0.0000 0.1925 0.1550 (  1697 PWs)   bands (ev):

  -112.5709-112.5706 -66.7792 -66.7756 -66.7739 -66.7734 -66.7732 -66.7726
    -7.8051  -7.2142   4.2996   4.3963   4.7834   4.8013   4.9053   4.9806
     6.2461   6.2945   6.5070   6.5434   7.5368   9.3039   9.6415   9.9102
    10.5337  10.7101  14.1806  17.1129  20.2270  22.5498  23.9075

     occupation numbers 
     1.0000   1.0000   1.0000   1.0000   1.0000   1.0000   1.0000   1.0000
     1.0000   1.0000   1.0000   1.0000   1.0000   1.0000   1.0000   1.0000
     1.0000   1.0000   1.0000   1.0000   1.0000   1.0000   1.0000   1.0000
     1.0000   1.0000   0.0000   0.0000   0.0000   0.0000   0.0000

          k = 0.0000 0.1925 0.2325 (  1693 PWs)   bands (ev):

  -112.5708-112.5707 -66.7784 -66.7764 -66.7738 -66.7733 -66.7732 -66.7728
    -7.6730  -7.3531   4.2163   4.2786   4.8071   4.8181   4.8701   4.9240
     6.3277   6.3496   6.4649   6.4867   8.1367   9.1623   9.6309  10.0972
    10.2415  10.5299  14.8384  16.3867  20.8046  22.2899  23.4561

     occupation numbers 
     1.0000   1.0000   1.0000   1.0000   1.0000   1.0000   1.0000   1.0000
     1.0000   1.0000   1.0000   1.0000   1.0000   1.0000   1.0000   1.0000
     1.0000   1.0000   1.0000   1.0000   1.0000   1.0000   1.0000   1.0000
     1.0000   1.0000   0.0000   0.0000   0.0000   0.0000   0.0000

          k = 0.0000 0.1925-0.3100 (  1692 PWs)   bands (ev):

  -112.5707-112.5707 -66.7774 -66.7774 -66.7736 -66.7736 -66.7729 -66.7729
    -7.5145  -7.5145   4.2095   4.2095   4.8324   4.8324   4.8666   4.8666
     6.4099   6.4099   6.4122   6.4122   8.7083   8.7083   9.9068   9.9068
    10.3150  10.3150  15.6025  15.6025  21.5315  21.5315  23.6430

     occupation numbers 
     1.0000   1.0000   1.0000   1.0000   1.0000   1.0000   1.0000   1.0000
     1.0000   1.0000   1.0000   1.0000   1.0000   1.0000   1.0000   1.0000
     1.0000   1.0000   1.0000   1.0000   1.0000   1.0000   1.0000   1.0000
     1.0000   1.0000   0.0000   0.0000   0.0000   0.0000   0.0000

          k = 0.0000 0.2887 0.0000 (  1689 PWs)   bands (ev):

  -112.5708-112.5705 -66.7794 -66.7751 -66.7751 -66.7742 -66.7738 -66.7727
    -7.7181  -7.0108   4.2675   4.6954   4.8456   4.9178   5.1286   5.2042
     6.0848   6.2708   6.5541   6.6175   6.9059   8.3142   9.3243   9.3282
    10.4693  10.6274  14.6155  18.7823  19.5189  21.2066  23.5135

     occupation numbers 
     1.0000   1.0000   1.0000   1.0000   1.0000   1.0000   1.0000   1.0000
     1.0000   1.0000   1.0000   1.0000   1.0000   1.0000   1.0000   1.0000
     1.0000   1.0000   1.0000   1.0000   1.0000   1.0000   1.0000   1.0000
     1.0000   1.0000   0.0000   0.0000   0.0000   0.0000   0.0000

          k = 0.0000 0.2887 0.0775 (  1695 PWs)   bands (ev):

  -112.5708-112.5706 -66.7793 -66.7754 -66.7751 -66.7741 -66.7737 -66.7727
    -7.6916  -7.0380   4.2427   4.5811   4.8550   4.9193   5.1024   5.1851
     6.1225   6.2826   6.5440   6.6202   7.0997   8.3660   9.2561   9.3775
    10.4508  10.5802  14.7071  18.4002  19.8003  21.2538  23.4647

     occupation numbers 
     1.0000   1.0000   1.0000   1.0000   1.0000   1.0000   1.0000   1.0000
     1.0000   1.0000   1.0000   1.0000   1.0000   1.0000   1.0000   1.0000
     1.0000   1.0000   1.0000   1.0000   1.0000   1.0000   1.0000   1.0000
     1.0000   1.0000   0.0000   0.0000   0.0000   0.0000   0.0000

          k = 0.0000 0.2887 0.1550 (  1694 PWs)   bands (ev):

  -112.5708-112.5706 -66.7790 -66.7760 -66.7749 -66.7740 -66.7737 -66.7728
    -7.6159  -7.1152   4.1806   4.3688   4.8833   4.9142   5.0501   5.1338
     6.2086   6.3154   6.5150   6.5849   7.5745   8.5152   9.1035   9.5267
    10.3246  10.4449  15.0013  17.7127  20.2332  21.3644  23.2550

     occupation numbers 
     1.0000   1.0000   1.0000   1.0000   1.0000   1.0000   1.0000   1.0000
     1.0000   1.0000   1.0000   1.0000   1.0000   1.0000   1.0000   1.0000
     1.0000   1.0000   1.0000   1.0000   1.0000   1.0000   1.0000   1.0000
     1.0000   1.0000   0.0000   0.0000   0.0000   0.0000   0.0000

          k = 0.0000 0.2887 0.2325 (  1690 PWs)   bands (ev):

  -112.5708-112.5706 -66.7783 -66.7768 -66.7746 -66.7741 -66.7734 -66.7730
    -7.5019  -7.2307   4.1210   4.1995   4.9199   4.9301   4.9943   5.0646
     6.3141   6.3633   6.4711   6.5144   8.0672   8.6173   9.1165   9.7447
    10.0075  10.2404  15.5097  16.9465  20.6839  21.3869  23.0608

     occupation numbers 
     1.0000   1.0000   1.0000   1.0000   1.0000   1.0000   1.0000   1.0000
     1.0000   1.0000   1.0000   1.0000   1.0000   1.0000   1.0000   1.0000
     1.0000   1.0000   1.0000   1.0000   1.0000   1.0000   1.0000   1.0000
     1.0000   1.0000   0.0000   0.0000   0.0000   0.0000   0.0000

          k = 0.0000 0.2887-0.3100 (  1682 PWs)   bands (ev):

  -112.5707-112.5707 -66.7776 -66.7776 -66.7742 -66.7742 -66.7732 -66.7732
    -7.3666  -7.3666   4.1171   4.1171   4.9477   4.9477   4.9928   4.9928
     6.4180   6.4180   6.4206   6.4206   8.4204   8.4204   9.5376   9.5376
     9.9953   9.9953  16.1851  16.1851  21.1201  21.1201  23.2497

     occupation numbers 
     1.0000   1.0000   1.0000   1.0000   1.0000   1.0000   1.0000   1.0000
     1.0000   1.0000   1.0000   1.0000   1.0000   1.0000   1.0000   1.0000
     1.0000   1.0000   1.0000   1.0000   1.0000   1.0000   1.0000   1.0000
     1.0000   1.0000   0.0000   0.0000   0.0000   0.0000   0.0000

          k = 0.0000 0.3849 0.0000 (  1694 PWs)   bands (ev):

  -112.5708-112.5705 -66.7788 -66.7762 -66.7755 -66.7753 -66.7741 -66.7729
    -7.4914  -6.9480   4.1777   4.6119   4.9187   5.0842   5.3978   5.4047
     6.0879   6.3412   6.5686   6.5924   7.0254   7.5930   8.6822   8.8867
    10.1077  10.3664  15.6958  19.0623  19.3750  20.5012  22.9160

     occupation numbers 
     1.0000   1.0000   1.0000   1.0000   1.0000   1.0000   1.0000   1.0000
     1.0000   1.0000   1.0000   1.0000   1.0000   1.0000   1.0000   1.0000
     1.0000   1.0000   1.0000   1.0000   1.0000   1.0000   1.0000   1.0000
     1.0000   1.0000   0.0000   0.0000   0.0000   0.0000   0.0000

          k = 0.0000 0.3849 0.0775 (  1689 PWs)   bands (ev):

  -112.5707-112.5705 -66.7788 -66.7760 -66.7760 -66.7749 -66.7740 -66.7729
    -7.4700  -6.9677   4.1520   4.5215   4.9322   5.0701   5.3377   5.3732
     6.1281   6.3490   6.5577   6.6397   7.1444   7.6769   8.6390   8.9502
    10.1255  10.3140  15.7185  18.6139  19.7486  20.5231  22.8779

     occupation numbers 
     1.0000   1.0000   1.0000   1.0000   1.0000   1.0000   1.0000   1.0000
     1.0000   1.0000   1.0000   1.0000   1.0000   1.0000   1.0000   1.0000
     1.0000   1.0000   1.0000   1.0000   1.0000   1.0000   1.0000   1.0000
     1.0000   1.0000   0.0000   0.0000   0.0000   0.0000   0.0000

          k = 0.0000 0.3849 0.1550 (  1685 PWs)   bands (ev):

  -112.5707-112.5705 -66.7787 -66.7766 -66.7756 -66.7747 -66.7739 -66.7730
    -7.4094  -7.0243   4.0907   4.3219   4.9721   5.0512   5.2326   5.3066
     6.2217   6.3713   6.5285   6.6286   7.4243   7.9102   8.6135   9.1258
    10.0957  10.1639  15.8368  17.9746  20.1657  20.5912  22.7619

     occupation numbers 
     1.0000   1.0000   1.0000   1.0000   1.0000   1.0000   1.0000   1.0000
     1.0000   1.0000   1.0000   1.0000   1.0000   1.0000   1.0000   1.0000
     1.0000   1.0000   1.0000   1.0000   1.0000   1.0000   1.0000   1.0000
     1.0000   1.0000   0.0000   0.0000   0.0000   0.0000   0.0000

          k = 0.0000 0.3849 0.2325 (  1687 PWs)   bands (ev):

  -112.5707-112.5706 -66.7785 -66.7773 -66.7752 -66.7747 -66.7737 -66.7732
    -7.3192  -7.1105   4.0373   4.1406   5.0366   5.0544   5.1476   5.2161
     6.3360   6.4050   6.4889   6.5533   7.6620   7.9921   8.9243   9.3773
     9.8826   9.9362  16.1408  17.2946  20.4714  20.6710  22.7691

     occupation numbers 
     1.0000   1.0000   1.0000   1.0000   1.0000   1.0000   1.0000   1.0000
     1.0000   1.0000   1.0000   1.0000   1.0000   1.0000   1.0000   1.0000
     1.0000   1.0000   1.0000   1.0000   1.0000   1.0000   1.0000   1.0000
     1.0000   1.0000   0.0000   0.0000   0.0000   0.0000   0.0000

          k = 0.0000 0.3849-0.3100 (  1682 PWs)   bands (ev):

  -112.5706-112.5706 -66.7779 -66.7779 -66.7749 -66.7749 -66.7735 -66.7735
    -7.2140  -7.2140   4.0436   4.0436   5.0872   5.0872   5.1210   5.1210
     6.4458   6.4458   6.4509   6.4509   7.8563   7.8563   9.4536   9.4536
     9.6615   9.6615  16.6505  16.6505  20.6431  20.6431  23.1309

     occupation numbers 
     1.0000   1.0000   1.0000   1.0000   1.0000   1.0000   1.0000   1.0000
     1.0000   1.0000   1.0000   1.0000   1.0000   1.0000   1.0000   1.0000
     1.0000   1.0000   1.0000   1.0000   1.0000   1.0000   1.0000   1.0000
     1.0000   1.0000   0.0000   0.0000   0.0000   0.0000   0.0000

          k = 0.0000 0.4811 0.0000 (  1672 PWs)   bands (ev):

  -112.5707-112.5705 -66.7782 -66.7768 -66.7761 -66.7757 -66.7742 -66.7729
    -7.2982  -6.9230   4.1970   4.4934   4.9601   5.2267   5.4756   5.5643
     6.2307   6.4295   6.5832   6.7231   6.8472   7.3722   8.1147   8.5352
     9.7553  10.1621  16.7262  18.7316  18.9130  20.4617  22.5327

     occupation numbers 
     1.0000   1.0000   1.0000   1.0000   1.0000   1.0000   1.0000   1.0000
     1.0000   1.0000   1.0000   1.0000   1.0000   1.0000   1.0000   1.0000
     1.0000   1.0000   1.0000   1.0000   1.0000   1.0000   1.0000   1.0000
     1.0000   1.0000   0.0000   0.0000   0.0000   0.0000   0.0000

          k = 0.0000 0.4811 0.0775 (  1678 PWs)   bands (ev):

  -112.5707-112.5705 -66.7783 -66.7766 -66.7765 -66.7754 -66.7742 -66.7730
    -7.2824  -6.9354   4.1641   4.4184   4.9771   5.2074   5.4322   5.5328
     6.2589   6.4332   6.5720   6.7373   6.8852   7.4422   8.1794   8.6091
     9.8006  10.1059  16.6566  18.3656  19.2975  20.4834  22.4659

     occupation numbers 
     1.0000   1.0000   1.0000   1.0000   1.0000   1.0000   1.0000   1.0000
     1.0000   1.0000   1.0000   1.0000   1.0000   1.0000   1.0000   1.0000
     1.0000   1.0000   1.0000   1.0000   1.0000   1.0000   1.0000   1.0000
     1.0000   1.0000   0.0000   0.0000   0.0000   0.0000   0.0000

          k = 0.0000 0.4811 0.1550 (  1684 PWs)   bands (ev):

  -112.5707-112.5705 -66.7786 -66.7773 -66.7760 -66.7751 -66.7741 -66.7732
    -7.2380  -6.9718   4.0858   4.2487   5.0274   5.1816   5.3478   5.4481
     6.3338   6.4442   6.5453   6.6877   7.0236   7.4942   8.4797   8.8099
     9.8578   9.9449  16.5573  17.9055  19.7383  20.5206  22.3765

     occupation numbers 
     1.0000   1.0000   1.0000   1.0000   1.0000   1.0000   1.0000   1.0000
     1.0000   1.0000   1.0000   1.0000   1.0000   1.0000   1.0000   1.0000
     1.0000   1.0000   1.0000   1.0000   1.0000   1.0000   1.0000   1.0000
     1.0000   1.0000   0.0000   0.0000   0.0000   0.0000   0.0000

          k = 0.0000 0.4811 0.2325 (  1681 PWs)   bands (ev):

  -112.5706-112.5705 -66.7785 -66.7779 -66.7755 -66.7750 -66.7738 -66.7734
    -7.1730  -7.0287   4.0147   4.0893   5.1084   5.1816   5.2694   5.3337
     6.4284   6.4622   6.5145   6.6110   7.1732   7.4295   8.9801   9.0910
     9.7001   9.7735  16.6199  17.3995  20.0978  20.4942  22.5160

     occupation numbers 
     1.0000   1.0000   1.0000   1.0000   1.0000   1.0000   1.0000   1.0000
     1.0000   1.0000   1.0000   1.0000   1.0000   1.0000   1.0000   1.0000
     1.0000   1.0000   1.0000   1.0000   1.0000   1.0000   1.0000   1.0000
     1.0000   1.0000   0.0000   0.0000   0.0000   0.0000   0.0000

          k = 0.0000 0.4811-0.3100 (  1686 PWs)   bands (ev):

  -112.5706-112.5706 -66.7784 -66.7784 -66.7752 -66.7752 -66.7736 -66.7736
    -7.0992  -7.0992   4.0066   4.0066   5.2120   5.2120   5.2142   5.2142
     6.4860   6.4860   6.5234   6.5234   7.3117   7.3117   9.4026   9.4026
     9.4638   9.4638  16.9255  16.9255  20.3505  20.3505  23.0112

     occupation numbers 
     1.0000   1.0000   1.0000   1.0000   1.0000   1.0000   1.0000   1.0000
     1.0000   1.0000   1.0000   1.0000   1.0000   1.0000   1.0000   1.0000
     1.0000   1.0000   1.0000   1.0000   1.0000   1.0000   1.0000   1.0000
     1.0000   1.0000   0.0000   0.0000   0.0000   0.0000   0.0000

          k = 0.0000-0.5774 0.0000 (  1670 PWs)   bands (ev):

  -112.5706-112.5705 -66.7781 -66.7769 -66.7763 -66.7758 -66.7744 -66.7730
    -7.2143  -6.9256   4.2772   4.3825   4.9725   5.2911   5.4578   5.6315
     6.2704   6.4736   6.5898   6.6791   7.0820   7.1844   7.8847   8.3949
     9.5955  10.0838  17.4269  18.1265  18.8225  20.4825  22.3886

     occupation numbers 
     1.0000   1.0000   1.0000   1.0000   1.0000   1.0000   1.0000   1.0000
     1.0000   1.0000   1.0000   1.0000   1.0000   1.0000   1.0000   1.0000
     1.0000   1.0000   1.0000   1.0000   1.0000   1.0000   1.0000   1.0000
     1.0000   1.0000   0.0000   0.0000   0.0000   0.0000   0.0000

          k = 0.0000-0.5774 0.0775 (  1678 PWs)   bands (ev):

  -112.5706-112.5705 -66.7782 -66.7769 -66.7767 -66.7755 -66.7743 -66.7732
    -7.2014  -6.9345   4.2367   4.3180   4.9909   5.2707   5.4319   5.5967
     6.3221   6.4756   6.5783   6.6790   7.0778   7.1415   8.0746   8.4739
     9.6495  10.0263  17.2125  18.0405  19.0795  20.5098  22.3088

     occupation numbers 
     1.0000   1.0000   1.0000   1.0000   1.0000   1.0000   1.0000   1.0000
     1.0000   1.0000   1.0000   1.0000   1.0000   1.0000   1.0000   1.0000
     1.0000   1.0000   1.0000   1.0000   1.0000   1.0000   1.0000   1.0000
     1.0000   1.0000   0.0000   0.0000   0.0000   0.0000   0.0000

          k = 0.0000-0.5774 0.1550 (  1686 PWs)   bands (ev):

  -112.5706-112.5705 -66.7785 -66.7775 -66.7762 -66.7753 -66.7741 -66.7733
    -7.1656  -6.9608   4.1384   4.1740   5.0452   5.2440   5.3728   5.5034
     6.4270   6.4816   6.5528   6.6731   7.0669   7.0836   8.5172   8.6865
     9.7408   9.8612  16.9051  17.7827  19.5380  20.5455  22.2158

     occupation numbers 
     1.0000   1.0000   1.0000   1.0000   1.0000   1.0000   1.0000   1.0000
     1.0000   1.0000   1.0000   1.0000   1.0000   1.0000   1.0000   1.0000
     1.0000   1.0000   1.0000   1.0000   1.0000   1.0000   1.0000   1.0000
     1.0000   1.0000   0.0000   0.0000   0.0000   0.0000   0.0000

          k = 0.0000-0.5774 0.2325 (  1684 PWs)   bands (ev):

  -112.5706-112.5705 -66.7786 -66.7781 -66.7756 -66.7752 -66.7739 -66.7735
    -7.1140  -7.0029   4.0390   4.0461   5.1328   5.2416   5.3116   5.3779
     6.4918   6.5269   6.5271   6.6504   7.0532   7.0540   8.9805   9.0343
     9.6098   9.7170  16.8148  17.3950  19.9478  20.4742  22.3972

     occupation numbers 
     1.0000   1.0000   1.0000   1.0000   1.0000   1.0000   1.0000   1.0000
     1.0000   1.0000   1.0000   1.0000   1.0000   1.0000   1.0000   1.0000
     1.0000   1.0000   1.0000   1.0000   1.0000   1.0000   1.0000   1.0000
     1.0000   1.0000   0.0000   0.0000   0.0000   0.0000   0.0000

          k = 0.0000-0.5774-0.3100 (  1672 PWs)   bands (ev):

  -112.5706-112.5706 -66.7784 -66.7784 -66.7753 -66.7753 -66.7736 -66.7736
    -7.0565  -7.0565   3.9975   3.9975   5.2477   5.2477   5.2654   5.2654
     6.5067   6.5067   6.6025   6.6025   7.0465   7.0465   9.3033   9.3033
     9.4735   9.4735  17.0122  17.0122  20.2624  20.2624  22.9432

     occupation numbers 
     1.0000   1.0000   1.0000   1.0000   1.0000   1.0000   1.0000   1.0000
     1.0000   1.0000   1.0000   1.0000   1.0000   1.0000   1.0000   1.0000
     1.0000   1.0000   1.0000   1.0000   1.0000   1.0000   1.0000   1.0000
     1.0000   1.0000   0.0000   0.0000   0.0000   0.0000   0.0000

          k = 0.0833 0.1443 0.0000 (  1717 PWs)   bands (ev):

  -112.5710-112.5706 -66.7800 -66.7749 -66.7739 -66.7736 -66.7730 -66.7725
    -7.9677  -7.1059   4.5051   4.5448   4.7626   4.7959   4.8736   5.0083
     6.1839   6.2348   6.5365   6.5908   6.8385   9.4340   9.7320  10.2124
    10.8023  10.9064  13.3049  17.6909  19.6576  22.8479  24.4531

     occupation numbers 
     1.0000   1.0000   1.0000   1.0000   1.0000   1.0000   1.0000   1.0000
     1.0000   1.0000   1.0000   1.0000   1.0000   1.0000   1.0000   1.0000
     1.0000   1.0000   1.0000   1.0000   1.0000   1.0000   1.0000   1.0000
     1.0000   1.0000   0.0000   0.0000   0.0000   0.0000   0.0000

          k = 0.0833 0.1443 0.0775 (  1705 PWs)   bands (ev):

  -112.5710-112.5706 -66.7798 -66.7750 -66.7738 -66.7735 -66.7730 -66.7725
    -7.9366  -7.1403   4.4665   4.4803   4.7539   4.7842   4.8871   4.9930
     6.2045   6.2504   6.5287   6.5707   7.0396   9.4767   9.7500  10.1067
    10.7617  10.8655  13.4893  17.4743  19.8195  22.8875  24.4533

     occupation numbers 
     1.0000   1.0000   1.0000   1.0000   1.0000   1.0000   1.0000   1.0000
     1.0000   1.0000   1.0000   1.0000   1.0000   1.0000   1.0000   1.0000
     1.0000   1.0000   1.0000   1.0000   1.0000   1.0000   1.0000   1.0000
     1.0000   1.0000   0.0000   0.0000   0.0000   0.0000   0.0000

          k = 0.0833 0.1443 0.1550 (  1697 PWs)   bands (ev):

  -112.5709-112.5706 -66.7792 -66.7755 -66.7737 -66.7734 -66.7730 -66.7726
    -7.8472  -7.2377   4.3244   4.4061   4.7619   4.7688   4.8797   4.9524
     6.2599   6.2915   6.5045   6.5346   7.5250   9.6019   9.6432  10.0180
    10.6088  10.7485  13.9848  16.9373  20.2287  22.9449  24.0953

     occupation numbers 
     1.0000   1.0000   1.0000   1.0000   1.0000   1.0000   1.0000   1.0000
     1.0000   1.0000   1.0000   1.0000   1.0000   1.0000   1.0000   1.0000
     1.0000   1.0000   1.0000   1.0000   1.0000   1.0000   1.0000   1.0000
     1.0000   1.0000   0.0000   0.0000   0.0000   0.0000   0.0000

          k = 0.0833 0.1443 0.2325 (  1694 PWs)   bands (ev):

  -112.5708-112.5707 -66.7784 -66.7763 -66.7735 -66.7732 -66.7730 -66.7728
    -7.7114  -7.3816   4.2353   4.3070   4.7730   4.7863   4.8512   4.8994
     6.3348   6.3481   6.4636   6.4823   8.1314   9.2555   9.8013  10.1525
    10.3587  10.5731  14.6744  16.2314  20.8214  22.4952  23.6215

     occupation numbers 
     1.0000   1.0000   1.0000   1.0000   1.0000   1.0000   1.0000   1.0000
     1.0000   1.0000   1.0000   1.0000   1.0000   1.0000   1.0000   1.0000
     1.0000   1.0000   1.0000   1.0000   1.0000   1.0000   1.0000   1.0000
     1.0000   1.0000   0.0000   0.0000   0.0000   0.0000   0.0000

          k = 0.0833 0.1443-0.3100 (  1690 PWs)   bands (ev):

  -112.5708-112.5708 -66.7773 -66.7773 -66.7734 -66.7734 -66.7729 -66.7729
    -7.5482  -7.5482   4.2350   4.2350   4.7929   4.7929   4.8515   4.8515
     6.4086   6.4086   6.4136   6.4136   8.7345   8.7345  10.0585  10.0585
    10.3681  10.3681  15.4515  15.4515  21.5966  21.5966  23.8388

     occupation numbers 
     1.0000   1.0000   1.0000   1.0000   1.0000   1.0000   1.0000   1.0000
     1.0000   1.0000   1.0000   1.0000   1.0000   1.0000   1.0000   1.0000
     1.0000   1.0000   1.0000   1.0000   1.0000   1.0000   1.0000   1.0000
     1.0000   1.0000   0.0000   0.0000   0.0000   0.0000   0.0000

          k = 0.0833 0.2406 0.0000 (  1694 PWs)   bands (ev):

  -112.5709-112.5706 -66.7796 -66.7750 -66.7746 -66.7740 -66.7736 -66.7727
    -7.7952  -7.0377   4.3615   4.6387   4.8231   4.8954   5.0033   5.1517
     6.1218   6.2432   6.5472   6.6285   6.8710   8.7114   9.2495   9.6850
    10.5889  10.6665  14.2653  18.5419  19.5933  21.6914  23.6501

     occupation numbers 
     1.0000   1.0000   1.0000   1.0000   1.0000   1.0000   1.0000   1.0000
     1.0000   1.0000   1.0000   1.0000   1.0000   1.0000   1.0000   1.0000
     1.0000   1.0000   1.0000   1.0000   1.0000   1.0000   1.0000   1.0000
     1.0000   1.0000   0.0000   0.0000   0.0000   0.0000   0.0000

          k = 0.0833 0.2406 0.0775 (  1695 PWs)   bands (ev):

  -112.5709-112.5706 -66.7794 -66.7753 -66.7746 -66.7740 -66.7735 -66.7727
    -7.7672  -7.0672   4.3349   4.5452   4.8167   4.8795   5.0055   5.1343
     6.1509   6.2606   6.5378   6.6149   7.0768   8.7601   9.2598   9.6428
    10.5593  10.6205  14.3822  18.2199  19.8208  21.7377  23.6819

     occupation numbers 
     1.0000   1.0000   1.0000   1.0000   1.0000   1.0000   1.0000   1.0000
     1.0000   1.0000   1.0000   1.0000   1.0000   1.0000   1.0000   1.0000
     1.0000   1.0000   1.0000   1.0000   1.0000   1.0000   1.0000   1.0000
     1.0000   1.0000   0.0000   0.0000   0.0000   0.0000   0.0000

          k = 0.0833 0.2406 0.1550 (  1695 PWs)   bands (ev):

  -112.5708-112.5706 -66.7790 -66.7758 -66.7745 -66.7739 -66.7734 -66.7728
    -7.6869  -7.1509   4.2636   4.3603   4.8248   4.8628   4.9873   5.0883
     6.2244   6.3011   6.5101   6.5738   7.5693   8.8969   9.2080   9.6502
    10.4110  10.4885  14.7365  17.5639  20.2478  21.8347  23.5884

     occupation numbers 
     1.0000   1.0000   1.0000   1.0000   1.0000   1.0000   1.0000   1.0000
     1.0000   1.0000   1.0000   1.0000   1.0000   1.0000   1.0000   1.0000
     1.0000   1.0000   1.0000   1.0000   1.0000   1.0000   1.0000   1.0000
     1.0000   1.0000   0.0000   0.0000   0.0000   0.0000   0.0000

          k = 0.0833 0.2406 0.2325 (  1693 PWs)   bands (ev):

  -112.5708-112.5707 -66.7783 -66.7766 -66.7743 -66.7738 -66.7734 -66.7730
    -7.5658  -7.2755   4.1847   4.2206   4.8412   4.8644   4.9637   5.0291
     6.3200   6.3541   6.4667   6.5069   8.1263   8.8936   9.2662   9.8068
    10.0969  10.2873  15.3054  16.8000  20.7590  21.7783  23.2436

     occupation numbers 
     1.0000   1.0000   1.0000   1.0000   1.0000   1.0000   1.0000   1.0000
     1.0000   1.0000   1.0000   1.0000   1.0000   1.0000   1.0000   1.0000
     1.0000   1.0000   1.0000   1.0000   1.0000   1.0000   1.0000   1.0000
     1.0000   1.0000   0.0000   0.0000   0.0000   0.0000   0.0000

          k = 0.0833 0.2406-0.3100 (  1696 PWs)   bands (ev):

  -112.5707-112.5707 -66.7775 -66.7775 -66.7740 -66.7740 -66.7732 -66.7732
    -7.4214  -7.4214   4.1612   4.1612   4.8591   4.8591   4.9775   4.9775
     6.4095   6.4095   6.4217   6.4217   8.5834   8.5834   9.6481   9.6481
    10.0539  10.0539  16.0209  16.0209  21.3317  21.3317  23.2888

     occupation numbers 
     1.0000   1.0000   1.0000   1.0000   1.0000   1.0000   1.0000   1.0000
     1.0000   1.0000   1.0000   1.0000   1.0000   1.0000   1.0000   1.0000
     1.0000   1.0000   1.0000   1.0000   1.0000   1.0000   1.0000   1.0000
     1.0000   1.0000   0.0000   0.0000   0.0000   0.0000   0.0000

          k = 0.0833 0.3368 0.0000 (  1700 PWs)   bands (ev):

  -112.5708-112.5705 -66.7791 -66.7758 -66.7754 -66.7749 -66.7740 -66.7729
    -7.5787  -6.9685   4.2475   4.6455   4.8639   5.0306   5.2828   5.3344
     6.0724   6.2904   6.5613   6.6174   6.9937   7.9331   8.8044   9.0465
    10.2695  10.3858  15.3351  19.0809  19.6426  20.7363  23.0710

     occupation numbers 
     1.0000   1.0000   1.0000   1.0000   1.0000   1.0000   1.0000   1.0000
     1.0000   1.0000   1.0000   1.0000   1.0000   1.0000   1.0000   1.0000
     1.0000   1.0000   1.0000   1.0000   1.0000   1.0000   1.0000   1.0000
     1.0000   1.0000   0.0000   0.0000   0.0000   0.0000   0.0000

          k = 0.0833 0.3368 0.0775 (  1689 PWs)   bands (ev):

  -112.5708-112.5705 -66.7789 -66.7757 -66.7755 -66.7747 -66.7740 -66.7729
    -7.5552  -6.9911   4.2215   4.5552   4.8726   5.0146   5.2281   5.3109
     6.1126   6.3116   6.5512   6.6436   7.1529   7.9990   8.8014   9.0502
    10.2681  10.3368  15.3916  18.6842  19.9212  20.7773  23.1057

     occupation numbers 
     1.0000   1.0000   1.0000   1.0000   1.0000   1.0000   1.0000   1.0000
     1.0000   1.0000   1.0000   1.0000   1.0000   1.0000   1.0000   1.0000
     1.0000   1.0000   1.0000   1.0000   1.0000   1.0000   1.0000   1.0000
     1.0000   1.0000   0.0000   0.0000   0.0000   0.0000   0.0000

          k = 0.0833 0.3368 0.1550 (  1688 PWs)   bands (ev):

  -112.5707-112.5706 -66.7788 -66.7763 -66.7753 -66.7745 -66.7738 -66.7731
    -7.4883  -7.0561   4.1575   4.3565   4.8982   4.9907   5.1487   5.2524
     6.2054   6.3475   6.5231   6.6194   7.5472   8.1960   8.7493   9.1660
    10.1595  10.2246  15.5943  18.0128  20.2871  20.8866  22.9939

     occupation numbers 
     1.0000   1.0000   1.0000   1.0000   1.0000   1.0000   1.0000   1.0000
     1.0000   1.0000   1.0000   1.0000   1.0000   1.0000   1.0000   1.0000
     1.0000   1.0000   1.0000   1.0000   1.0000   1.0000   1.0000   1.0000
     1.0000   1.0000   0.0000   0.0000   0.0000   0.0000   0.0000

          k = 0.0833 0.3368 0.2325 (  1691 PWs)   bands (ev):

  -112.5707-112.5706 -66.7784 -66.7771 -66.7749 -66.7745 -66.7737 -66.7733
    -7.3884  -7.1541   4.0976   4.1817   4.9334   4.9821   5.1001   5.1777
     6.3197   6.3889   6.4835   6.5431   7.8931   8.2988   8.9437   9.3900
     9.9130   9.9915  15.9940  17.2830  20.6143  20.9726  22.8458

     occupation numbers 
     1.0000   1.0000   1.0000   1.0000   1.0000   1.0000   1.0000   1.0000
     1.0000   1.0000   1.0000   1.0000   1.0000   1.0000   1.0000   1.0000
     1.0000   1.0000   1.0000   1.0000   1.0000   1.0000   1.0000   1.0000
     1.0000   1.0000   0.0000   0.0000   0.0000   0.0000   0.0000

          k = 0.0833 0.3368-0.3100 (  1684 PWs)   bands (ev):

  -112.5707-112.5707 -66.7777 -66.7777 -66.7746 -66.7746 -66.7734 -66.7734
    -7.2709  -7.2709   4.0944   4.0944   4.9661   4.9661   5.1133   5.1133
     6.4224   6.4224   6.4518   6.4518   8.1377   8.1377   9.4359   9.4359
     9.7147   9.7147  16.5809  16.5809  20.8760  20.8760  23.0152

     occupation numbers 
     1.0000   1.0000   1.0000   1.0000   1.0000   1.0000   1.0000   1.0000
     1.0000   1.0000   1.0000   1.0000   1.0000   1.0000   1.0000   1.0000
     1.0000   1.0000   1.0000   1.0000   1.0000   1.0000   1.0000   1.0000
     1.0000   1.0000   0.0000   0.0000   0.0000   0.0000   0.0000

          k = 0.0833 0.4330 0.0000 (  1682 PWs)   bands (ev):

  -112.5707-112.5705 -66.7784 -66.7764 -66.7758 -66.7756 -66.7743 -66.7731
    -7.3657  -6.9267   4.2242   4.5871   4.9184   5.1601   5.4750   5.5120
     6.1470   6.3444   6.5798   6.6753   6.9822   7.4678   8.3440   8.4963
     9.8812  10.1361  16.4144  18.9758  19.3549  20.4539  22.7093

     occupation numbers 
     1.0000   1.0000   1.0000   1.0000   1.0000   1.0000   1.0000   1.0000
     1.0000   1.0000   1.0000   1.0000   1.0000   1.0000   1.0000   1.0000
     1.0000   1.0000   1.0000   1.0000   1.0000   1.0000   1.0000   1.0000
     1.0000   1.0000   0.0000   0.0000   0.0000   0.0000   0.0000

          k = 0.0833 0.4330 0.0775 (  1681 PWs)   bands (ev):

  -112.5707-112.5705 -66.7785 -66.7764 -66.7762 -66.7752 -66.7743 -66.7731
    -7.3477  -6.9418   4.1946   4.5067   4.9310   5.1423   5.4125   5.4779
     6.1710   6.3807   6.5701   6.7095   7.0313   7.5776   8.3343   8.5724
     9.9099  10.0848  16.4007  18.6417  19.6430  20.4744  22.6333

     occupation numbers 
     1.0000   1.0000   1.0000   1.0000   1.0000   1.0000   1.0000   1.0000
     1.0000   1.0000   1.0000   1.0000   1.0000   1.0000   1.0000   1.0000
     1.0000   1.0000   1.0000   1.0000   1.0000   1.0000   1.0000   1.0000
     1.0000   1.0000   0.0000   0.0000   0.0000   0.0000   0.0000

          k = 0.0833 0.4330 0.1550 (  1684 PWs)   bands (ev):

  -112.5707-112.5705 -66.7785 -66.7770 -66.7758 -66.7750 -66.7741 -66.7733
    -7.2971  -6.9858   4.1237   4.3227   4.9692   5.1142   5.3088   5.4006
     6.2518   6.4182   6.5464   6.6834   7.2016   7.7463   8.4669   8.7755
     9.8641   9.9920  16.4236  18.1183  20.0111  20.5258  22.4724

     occupation numbers 
     1.0000   1.0000   1.0000   1.0000   1.0000   1.0000   1.0000   1.0000
     1.0000   1.0000   1.0000   1.0000   1.0000   1.0000   1.0000   1.0000
     1.0000   1.0000   1.0000   1.0000   1.0000   1.0000   1.0000   1.0000
     1.0000   1.0000   0.0000   0.0000   0.0000   0.0000   0.0000

          k = 0.0833 0.4330 0.2325 (  1687 PWs)   bands (ev):

  -112.5706-112.5706 -66.7785 -66.7776 -66.7754 -66.7749 -66.7739 -66.7735
    -7.2225  -7.0537   4.0602   4.1499   5.0275   5.1017   5.2373   5.3050
     6.3578   6.4443   6.5202   6.6025   7.3917   7.7086   8.8879   9.0768
     9.6343   9.8511  16.6060  17.5427  20.3027  20.5573  22.4670

     occupation numbers 
     1.0000   1.0000   1.0000   1.0000   1.0000   1.0000   1.0000   1.0000
     1.0000   1.0000   1.0000   1.0000   1.0000   1.0000   1.0000   1.0000
     1.0000   1.0000   1.0000   1.0000   1.0000   1.0000   1.0000   1.0000
     1.0000   1.0000   0.0000   0.0000   0.0000   0.0000   0.0000

          k = 0.0833 0.4330-0.3100 (  1692 PWs)   bands (ev):

  -112.5706-112.5706 -66.7782 -66.7782 -66.7751 -66.7751 -66.7737 -66.7737
    -7.1368  -7.1368   4.0587   4.0587   5.0823   5.0823   5.2322   5.2322
     6.4428   6.4428   6.5234   6.5234   7.5659   7.5659   9.2673   9.2673
     9.5399   9.5399  17.0004  17.0004  20.4880  20.4880  22.7951

     occupation numbers 
     1.0000   1.0000   1.0000   1.0000   1.0000   1.0000   1.0000   1.0000
     1.0000   1.0000   1.0000   1.0000   1.0000   1.0000   1.0000   1.0000
     1.0000   1.0000   1.0000   1.0000   1.0000   1.0000   1.0000   1.0000
     1.0000   1.0000   0.0000   0.0000   0.0000   0.0000   0.0000

          k = 0.0833 0.5292 0.0000 (  1680 PWs)   bands (ev):

  -112.5706-112.5705 -66.7780 -66.7769 -66.7763 -66.7759 -66.7745 -66.7733
    -7.2183  -6.9236   4.2923   4.4922   4.9489   5.2469   5.4842   5.6367
     6.2555   6.4041   6.5962   6.7040   6.9673   7.3566   7.8521   8.3408
     9.5636   9.9866  17.3867  18.5713  18.8408  20.4868  22.4310

     occupation numbers 
     1.0000   1.0000   1.0000   1.0000   1.0000   1.0000   1.0000   1.0000
     1.0000   1.0000   1.0000   1.0000   1.0000   1.0000   1.0000   1.0000
     1.0000   1.0000   1.0000   1.0000   1.0000   1.0000   1.0000   1.0000
     1.0000   1.0000   0.0000   0.0000   0.0000   0.0000   0.0000

          k = 0.0833 0.5292 0.0775 (  1676 PWs)   bands (ev):

  -112.5706-112.5705 -66.7782 -66.7768 -66.7766 -66.7755 -66.7745 -66.7732
    -7.2053  -6.9327   4.2551   4.4212   4.9622   5.2308   5.4533   5.5956
     6.2928   6.4221   6.5881   6.7154   6.9573   7.3465   8.0003   8.4313
     9.6108   9.9336  17.2480  18.3586  19.1510  20.5173  22.3120

     occupation numbers 
     1.0000   1.0000   1.0000   1.0000   1.0000   1.0000   1.0000   1.0000
     1.0000   1.0000   1.0000   1.0000   1.0000   1.0000   1.0000   1.0000
     1.0000   1.0000   1.0000   1.0000   1.0000   1.0000   1.0000   1.0000
     1.0000   1.0000   0.0000   0.0000   0.0000   0.0000   0.0000

          k = 0.0833 0.5292 0.1550 (  1687 PWs)   bands (ev):

  -112.5706-112.5705 -66.7785 -66.7775 -66.7761 -66.7752 -66.7743 -66.7734
    -7.1688  -6.9598   4.1642   4.2623   5.0043   5.2063   5.3895   5.4973
     6.3684   6.4509   6.5766   6.7179   6.9731   7.2973   8.3591   8.6998
     9.6353   9.8288  17.0320  18.0309  19.5951  20.5642  22.1242

     occupation numbers 
     1.0000   1.0000   1.0000   1.0000   1.0000   1.0000   1.0000   1.0000
     1.0000   1.0000   1.0000   1.0000   1.0000   1.0000   1.0000   1.0000
     1.0000   1.0000   1.0000   1.0000   1.0000   1.0000   1.0000   1.0000
     1.0000   1.0000   0.0000   0.0000   0.0000   0.0000   0.0000

          k = 0.0833 0.5292 0.2325 (  1691 PWs)   bands (ev):

  -112.5706-112.5706 -66.7786 -66.7780 -66.7756 -66.7751 -66.7741 -66.7736
    -7.1163  -7.0029   4.0757   4.1172   5.0741   5.1897   5.3342   5.3851
     6.4319   6.4672   6.5869   6.6832   7.0403   7.2191   8.7466   9.1103
     9.4308   9.7551  16.9945  17.6166  19.9869  20.5042  22.1919

     occupation numbers 
     1.0000   1.0000   1.0000   1.0000   1.0000   1.0000   1.0000   1.0000
     1.0000   1.0000   1.0000   1.0000   1.0000   1.0000   1.0000   1.0000
     1.0000   1.0000   1.0000   1.0000   1.0000   1.0000   1.0000   1.0000
     1.0000   1.0000   0.0000   0.0000   0.0000   0.0000   0.0000

          k = 0.0833 0.5292-0.3100 (  1694 PWs)   bands (ev):

  -112.5706-112.5706 -66.7784 -66.7784 -66.7753 -66.7753 -66.7739 -66.7739
    -7.0576  -7.0576   4.0502   4.0502   5.1513   5.1513   5.3194   5.3194
     6.4624   6.4624   6.6306   6.6306   7.1291   7.1291   9.1024   9.1024
     9.5228   9.5228  17.2175  17.2175  20.2946  20.2946  22.6195

     occupation numbers 
     1.0000   1.0000   1.0000   1.0000   1.0000   1.0000   1.0000   1.0000
     1.0000   1.0000   1.0000   1.0000   1.0000   1.0000   1.0000   1.0000
     1.0000   1.0000   1.0000   1.0000   1.0000   1.0000   1.0000   1.0000
     1.0000   1.0000   0.0000   0.0000   0.0000   0.0000   0.0000

          k = 0.1667 0.2887 0.0000 (  1699 PWs)   bands (ev):

  -112.5708-112.5705 -66.7791 -66.7754 -66.7753 -66.7749 -66.7739 -66.7730
    -7.6099  -6.9767   4.3301   4.5870   4.9216   4.9542   5.2248   5.3142
     6.0865   6.2624   6.5580   6.6345   6.9813   8.2130   8.6140   9.1827
    10.3313  10.3399  15.2401  19.0818  19.8054  20.9696  22.8997

     occupation numbers 
     1.0000   1.0000   1.0000   1.0000   1.0000   1.0000   1.0000   1.0000
     1.0000   1.0000   1.0000   1.0000   1.0000   1.0000   1.0000   1.0000
     1.0000   1.0000   1.0000   1.0000   1.0000   1.0000   1.0000   1.0000
     1.0000   1.0000   0.0000   0.0000   0.0000   0.0000   0.0000

          k = 0.1667 0.2887 0.0775 (  1694 PWs)   bands (ev):

  -112.5708-112.5705 -66.7790 -66.7757 -66.7752 -66.7747 -66.7739 -66.7730
    -7.5857  -7.0004   4.3013   4.5208   4.9118   4.9274   5.1796   5.2935
     6.1202   6.2937   6.5481   6.6509   7.1514   8.2808   8.6355   9.1514
    10.2758  10.3375  15.3109  18.7270  20.0153  21.0143  23.0666

     occupation numbers 
     1.0000   1.0000   1.0000   1.0000   1.0000   1.0000   1.0000   1.0000
     1.0000   1.0000   1.0000   1.0000   1.0000   1.0000   1.0000   1.0000
     1.0000   1.0000   1.0000   1.0000   1.0000   1.0000   1.0000   1.0000
     1.0000   1.0000   0.0000   0.0000   0.0000   0.0000   0.0000

          k = 0.1667 0.2887 0.1550 (  1689 PWs)   bands (ev):

  -112.5708-112.5706 -66.7788 -66.7762 -66.7750 -66.7745 -66.7737 -66.7732
    -7.5167  -7.0683   4.2289   4.3517   4.8966   4.9033   5.1227   5.2391
     6.2070   6.3393   6.5209   6.6205   7.5790   8.5076   8.6250   9.1591
    10.1190  10.2563  15.5483  18.0595  20.3395  21.1207  23.2830

     occupation numbers 
     1.0000   1.0000   1.0000   1.0000   1.0000   1.0000   1.0000   1.0000
     1.0000   1.0000   1.0000   1.0000   1.0000   1.0000   1.0000   1.0000
     1.0000   1.0000   1.0000   1.0000   1.0000   1.0000   1.0000   1.0000
     1.0000   1.0000   0.0000   0.0000   0.0000   0.0000   0.0000

          k = 0.1667 0.2887 0.2325 (  1687 PWs)   bands (ev):

  -112.5707-112.5706 -66.7783 -66.7769 -66.7747 -66.7744 -66.7736 -66.7734
    -7.4134  -7.1704   4.1543   4.1970   4.8939   4.9042   5.0959   5.1708
     6.3189   6.3844   6.4823   6.5435   7.9847   8.4888   8.9370   9.3180
     9.8906   9.9934  15.9845  17.3176  20.6883  21.1798  22.9788

     occupation numbers 
     1.0000   1.0000   1.0000   1.0000   1.0000   1.0000   1.0000   1.0000
     1.0000   1.0000   1.0000   1.0000   1.0000   1.0000   1.0000   1.0000
     1.0000   1.0000   1.0000   1.0000   1.0000   1.0000   1.0000   1.0000
     1.0000   1.0000   0.0000   0.0000   0.0000   0.0000   0.0000

          k = 0.1667 0.2887-0.3100 (  1692 PWs)   bands (ev):

  -112.5707-112.5707 -66.7777 -66.7777 -66.7745 -66.7745 -66.7736 -66.7736
    -7.2917  -7.2917   4.1308   4.1308   4.9016   4.9016   5.1141   5.1141
     6.4174   6.4174   6.4540   6.4540   8.2723   8.2723   9.4182   9.4182
     9.6850   9.6850  16.5980  16.5980  21.0213  21.0213  22.8751

     occupation numbers 
     1.0000   1.0000   1.0000   1.0000   1.0000   1.0000   1.0000   1.0000
     1.0000   1.0000   1.0000   1.0000   1.0000   1.0000   1.0000   1.0000
     1.0000   1.0000   1.0000   1.0000   1.0000   1.0000   1.0000   1.0000
     1.0000   1.0000   0.0000   0.0000   0.0000   0.0000   0.0000

          k = 0.1667 0.3849 0.0000 (  1700 PWs)   bands (ev):

  -112.5707-112.5705 -66.7786 -66.7761 -66.7757 -66.7755 -66.7745 -66.7734
    -7.4043  -6.9302   4.3403   4.5844   4.9420   5.0882   5.4401   5.4801
     6.0753   6.2906   6.5788   6.6928   7.0486   7.7360   8.1842   8.5216
     9.9525  10.0265  16.3377  19.0330  20.1512  20.4473  22.7312

     occupation numbers 
     1.0000   1.0000   1.0000   1.0000   1.0000   1.0000   1.0000   1.0000
     1.0000   1.0000   1.0000   1.0000   1.0000   1.0000   1.0000   1.0000
     1.0000   1.0000   1.0000   1.0000   1.0000   1.0000   1.0000   1.0000
     1.0000   1.0000   0.0000   0.0000   0.0000   0.0000   0.0000

          k = 0.1667 0.3849 0.0775 (  1691 PWs)   bands (ev):

  -112.5707-112.5705 -66.7786 -66.7762 -66.7758 -66.7753 -66.7744 -66.7734
    -7.3852  -6.9469   4.3075   4.5306   4.9318   5.0598   5.3565   5.4525
     6.1124   6.3500   6.5703   6.7218   7.1295   7.8421   8.2392   8.5003
     9.9075  10.0367  16.3621  18.8294  20.2328  20.4727  22.7865

     occupation numbers 
     1.0000   1.0000   1.0000   1.0000   1.0000   1.0000   1.0000   1.0000
     1.0000   1.0000   1.0000   1.0000   1.0000   1.0000   1.0000   1.0000
     1.0000   1.0000   1.0000   1.0000   1.0000   1.0000   1.0000   1.0000
     1.0000   1.0000   0.0000   0.0000   0.0000   0.0000   0.0000

          k = 0.1667 0.3849 0.1550 (  1688 PWs)   bands (ev):

  -112.5707-112.5705 -66.7785 -66.7768 -66.7755 -66.7750 -66.7742 -66.7735
    -7.3312  -6.9951   4.2279   4.3785   4.9255   5.0123   5.2616   5.3818
     6.2086   6.4070   6.5502   6.6956   7.3622   8.0357   8.4132   8.5680
     9.7399  10.0372  16.4721  18.3489  20.4023  20.5518  22.6019

     occupation numbers 
     1.0000   1.0000   1.0000   1.0000   1.0000   1.0000   1.0000   1.0000
     1.0000   1.0000   1.0000   1.0000   1.0000   1.0000   1.0000   1.0000
     1.0000   1.0000   1.0000   1.0000   1.0000   1.0000   1.0000   1.0000
     1.0000   1.0000   0.0000   0.0000   0.0000   0.0000   0.0000

          k = 0.1667 0.3849 0.2325 (  1692 PWs)   bands (ev):

  -112.5707-112.5706 -66.7784 -66.7774 -66.7752 -66.7749 -66.7740 -66.7737
    -7.2513  -7.0691   4.1525   4.2191   4.9430   4.9859   5.2212   5.2973
     6.3277   6.4355   6.5294   6.6112   7.5970   7.9698   8.7753   8.8936
     9.5080   9.8886  16.7398  17.7613  20.5718  20.6567  22.3619

     occupation numbers 
[...]
     6.0765   6.2472   6.6030   6.7170   6.9883   7.5039   7.9819   8.0012
     9.5686   9.6426  17.4675  18.8878  20.0240  20.4566  22.8178

     occupation numbers 
     1.0000   1.0000   1.0000   1.0000   1.0000   1.0000   1.0000   1.0000
     1.0000   1.0000   1.0000   1.0000   1.0000   1.0000   1.0000   1.0000
     1.0000   1.0000   1.0000   1.0000   1.0000   1.0000   1.0000   1.0000
     1.0000   1.0000   0.0000   0.0000   0.0000   0.0000   0.0000

          k = 0.2500 0.4330 0.0775 (  1694 PWs)   bands (ev):

  -112.5706-112.5705 -66.7781 -66.7766 -66.7759 -66.7758 -66.7748 -66.7740
    -7.2164  -6.9276   4.5074   4.5202   5.0280   5.0466   5.5077   5.5647
     6.1176   6.3461   6.5982   6.7949   6.9584   7.5777   7.9510   8.1435
     9.5009   9.6973  17.4664  18.8099  20.0547  20.5006  22.4412

     occupation numbers 
     1.0000   1.0000   1.0000   1.0000   1.0000   1.0000   1.0000   1.0000
     1.0000   1.0000   1.0000   1.0000   1.0000   1.0000   1.0000   1.0000
     1.0000   1.0000   1.0000   1.0000   1.0000   1.0000   1.0000   1.0000
     1.0000   1.0000   0.0000   0.0000   0.0000   0.0000   0.0000

          k = 0.2500 0.4330 0.1550 (  1692 PWs)   bands (ev):

  -112.5706-112.5705 -66.7783 -66.7772 -66.7756 -66.7755 -66.7745 -66.7740
    -7.1783  -6.9567   4.3890   4.4375   4.9381   5.0139   5.4055   5.4799
     6.2148   6.4201   6.5976   6.8450   7.0412   7.6824   7.9642   8.5025
     9.3273   9.7886  17.4951  18.5878  20.1450  20.5999  21.8716

     occupation numbers 
     1.0000   1.0000   1.0000   1.0000   1.0000   1.0000   1.0000   1.0000
     1.0000   1.0000   1.0000   1.0000   1.0000   1.0000   1.0000   1.0000
     1.0000   1.0000   1.0000   1.0000   1.0000   1.0000   1.0000   1.0000
     1.0000   1.0000   0.0000   0.0000   0.0000   0.0000   0.0000

          k = 0.2500 0.4330 0.2325 (  1687 PWs)   bands (ev):

  -112.5706-112.5706 -66.7783 -66.7777 -66.7753 -66.7752 -66.7743 -66.7742
    -7.1230  -7.0029   4.2821   4.3144   4.9124   4.9864   5.3598   5.3973
     6.3194   6.4272   6.6191   6.7574   7.2568   7.5999   8.2130   8.7615
     9.2606   9.7727  17.6253  18.2561  20.2931  20.6405  21.5074

     occupation numbers 
     1.0000   1.0000   1.0000   1.0000   1.0000   1.0000   1.0000   1.0000
     1.0000   1.0000   1.0000   1.0000   1.0000   1.0000   1.0000   1.0000
     1.0000   1.0000   1.0000   1.0000   1.0000   1.0000   1.0000   1.0000
     1.0000   1.0000   0.0000   0.0000   0.0000   0.0000   0.0000

          k = 0.2500 0.4330-0.3100 (  1692 PWs)   bands (ev):

  -112.5706-112.5706 -66.7782 -66.7782 -66.7752 -66.7752 -66.7742 -66.7742
    -7.0611  -7.0611   4.2493   4.2493   4.9450   4.9450   5.3551   5.3551
     6.3941   6.3941   6.6739   6.6739   7.4447   7.4447   8.5366   8.5366
     9.5614   9.5614  17.8971  17.8971  20.4899  20.4899  21.5789

     occupation numbers 
     1.0000   1.0000   1.0000   1.0000   1.0000   1.0000   1.0000   1.0000
     1.0000   1.0000   1.0000   1.0000   1.0000   1.0000   1.0000   1.0000
     1.0000   1.0000   1.0000   1.0000   1.0000   1.0000   1.0000   1.0000
     1.0000   1.0000   0.0000   0.0000   0.0000   0.0000   0.0000

          k = 0.2500 0.5292 0.0000 (  1681 PWs)   bands (ev):

  -112.5706-112.5705 -66.7775 -66.7765 -66.7763 -66.7759 -66.7754 -66.7742
    -7.0980  -6.9410   4.5252   4.8427   5.0309   5.1298   5.6391   5.7528
     6.1811   6.2083   6.4757   6.5319   7.0464   7.2195   7.5518   8.4356
     9.1534   9.3816  18.5506  18.7760  19.5375  20.2540  22.5071

     occupation numbers 
     1.0000   1.0000   1.0000   1.0000   1.0000   1.0000   1.0000   1.0000
     1.0000   1.0000   1.0000   1.0000   1.0000   1.0000   1.0000   1.0000
     1.0000   1.0000   1.0000   1.0000   1.0000   1.0000   1.0000   1.0000
     1.0000   1.0000   0.0000   0.0000   0.0000   0.0000   0.0000

          k = 0.2500 0.5292 0.0775 (  1691 PWs)   bands (ev):

  -112.5706-112.5705 -66.7778 -66.7769 -66.7762 -66.7756 -66.7753 -66.7743
    -7.0899  -6.9446   4.5196   4.7656   4.9509   5.1293   5.5965   5.6713
     6.1775   6.3194   6.5348   6.5577   7.0980   7.2412   7.5260   8.5548
     9.1388   9.4051  18.4671  18.8402  19.5642  20.3014  22.1274

     occupation numbers 
     1.0000   1.0000   1.0000   1.0000   1.0000   1.0000   1.0000   1.0000
     1.0000   1.0000   1.0000   1.0000   1.0000   1.0000   1.0000   1.0000
     1.0000   1.0000   1.0000   1.0000   1.0000   1.0000   1.0000   1.0000
     1.0000   1.0000   0.0000   0.0000   0.0000   0.0000   0.0000

          k = 0.2500 0.5292 0.1550 (  1689 PWs)   bands (ev):

  -112.5706-112.5705 -66.7781 -66.7775 -66.7759 -66.7753 -66.7749 -66.7744
    -7.0675  -6.9561   4.4775   4.5953   4.8373   5.0846   5.5306   5.5657
     6.2306   6.3563   6.6238   6.7318   7.0709   7.3577   7.5563   8.7788
     9.0557   9.5369  18.3707  18.8522  19.6736  20.4432  21.3922

     occupation numbers 
     1.0000   1.0000   1.0000   1.0000   1.0000   1.0000   1.0000   1.0000
     1.0000   1.0000   1.0000   1.0000   1.0000   1.0000   1.0000   1.0000
     1.0000   1.0000   1.0000   1.0000   1.0000   1.0000   1.0000   1.0000
     1.0000   1.0000   0.0000   0.0000   0.0000   0.0000   0.0000

          k = 0.2500 0.5292 0.2325 (  1684 PWs)   bands (ev):

  -112.5706-112.5705 -66.7782 -66.7779 -66.7756 -66.7751 -66.7746 -66.7744
    -7.0366  -6.9761   4.3941   4.4348   4.8298   4.9963   5.4915   5.5050
     6.2799   6.3446   6.7295   6.8804   7.0380   7.2800   7.8613   8.5851
     9.3138   9.6408  18.3729  18.7164  19.8869  20.6060  20.7978

     occupation numbers 
     1.0000   1.0000   1.0000   1.0000   1.0000   1.0000   1.0000   1.0000
     1.0000   1.0000   1.0000   1.0000   1.0000   1.0000   1.0000   1.0000
     1.0000   1.0000   1.0000   1.0000   1.0000   1.0000   1.0000   1.0000
     1.0000   1.0000   0.0000   0.0000   0.0000   0.0000   0.0000

          k = 0.2500 0.5292-0.3100 (  1678 PWs)   bands (ev):

  -112.5705-112.5705 -66.7782 -66.7782 -66.7753 -66.7753 -66.7744 -66.7744
    -7.0041  -7.0041   4.3620   4.3620   4.8990   4.8990   5.4829   5.4829
     6.3174   6.3174   6.8345   6.8345   7.1505   7.1505   8.2302   8.2302
     9.5723   9.5723  18.5102  18.5102  20.2055  20.2056  21.0702

     occupation numbers 
     1.0000   1.0000   1.0000   1.0000   1.0000   1.0000   1.0000   1.0000
     1.0000   1.0000   1.0000   1.0000   1.0000   1.0000   1.0000   1.0000
     1.0000   1.0000   1.0000   1.0000   1.0000   1.0000   1.0000   1.0000
     1.0000   1.0000   0.0000   0.0000   0.0000   0.0000   0.0000

          k = 0.3333 0.5774 0.0000 (  1686 PWs)   bands (ev):

  -112.5705-112.5705 -66.7770 -66.7770 -66.7761 -66.7758 -66.7758 -66.7746
    -7.0000  -7.0000   4.5532   5.0060   5.0060   5.2445   5.7563   5.7563
     6.1208   6.2720   6.2720   6.3188   6.9539   7.3772   7.3772   8.8773
     8.8773   9.0463  18.7369  19.5533  19.5686  19.5686  22.5490

     occupation numbers 
     1.0000   1.0000   1.0000   1.0000   1.0000   1.0000   1.0000   1.0000
     1.0000   1.0000   1.0000   1.0000   1.0000   1.0000   1.0000   1.0000
     1.0000   1.0000   1.0000   1.0000   1.0000   1.0000   1.0000   1.0000
     1.0000   1.0000   0.0000   0.0000   0.0000   0.0000   0.0000

          k = 0.3333 0.5774 0.0775 (  1692 PWs)   bands (ev):

  -112.5706-112.5706 -66.7773 -66.7773 -66.7761 -66.7755 -66.7755 -66.7746
    -6.9976  -6.9976   4.5687   4.9195   4.9195   5.1935   5.6901   5.6901
     6.1344   6.3127   6.4043   6.4043   7.0425   7.3448   7.3448   8.9627
     8.9820   8.9820  18.7951  19.5397  19.5743  19.5743  22.2169

     occupation numbers 
     1.0000   1.0000   1.0000   1.0000   1.0000   1.0000   1.0000   1.0000
     1.0000   1.0000   1.0000   1.0000   1.0000   1.0000   1.0000   1.0000
     1.0000   1.0000   1.0000   1.0000   1.0000   1.0000   1.0000   1.0000
     1.0000   1.0000   0.0000   0.0000   0.0000   0.0000   0.0000

          k = 0.3333 0.5774 0.1550 (  1692 PWs)   bands (ev):

  -112.5706-112.5706 -66.7777 -66.7777 -66.7760 -66.7751 -66.7751 -66.7747
    -6.9919  -6.9919   4.6153   4.7275   4.7275   5.0720   5.6165   5.6165
     6.1648   6.2954   6.6307   6.6307   7.2648   7.2648   7.2827   8.7302
     9.2309   9.2309  18.9440  19.4961  19.5936  19.5936  21.5563

     occupation numbers 
     1.0000   1.0000   1.0000   1.0000   1.0000   1.0000   1.0000   1.0000
     1.0000   1.0000   1.0000   1.0000   1.0000   1.0000   1.0000   1.0000
     1.0000   1.0000   1.0000   1.0000   1.0000   1.0000   1.0000   1.0000
     1.0000   1.0000   0.0000   0.0000   0.0000   0.0000   0.0000

          k = 0.3333 0.5774 0.2325 (  1683 PWs)   bands (ev):

  -112.5705-112.5705 -66.7780 -66.7780 -66.7756 -66.7750 -66.7747 -66.7747
    -6.9861  -6.9861   4.5583   4.5583   4.6928   4.9306   5.5803   5.5803
     6.2001   6.2687   6.8283   6.8283   7.1621   7.1621   7.6215   8.3941
     9.4775   9.4775  19.1264  19.4157  19.6274  19.6274  20.9885

     occupation numbers 
     1.0000   1.0000   1.0000   1.0000   1.0000   1.0000   1.0000   1.0000
     1.0000   1.0000   1.0000   1.0000   1.0000   1.0000   1.0000   1.0000
     1.0000   1.0000   1.0000   1.0000   1.0000   1.0000   1.0000   1.0000
     1.0000   1.0000   0.0000   0.0000   0.0000   0.0000   0.0000

          k = 0.3333 0.5774-0.3100 (  1692 PWs)   bands (ev):

  -112.5706-112.5706 -66.7782 -66.7782 -66.7754 -66.7754 -66.7746 -66.7746
    -6.9838  -6.9838   4.4938   4.4938   4.7996   4.7996   5.5696   5.5696
     6.2358   6.2358   6.9390   6.9390   7.0829   7.0829   8.0077   8.0077
     9.5796   9.5796  19.2917  19.2917  19.6502  19.6502  20.7629

     occupation numbers 
     1.0000   1.0000   1.0000   1.0000   1.0000   1.0000   1.0000   1.0000
     1.0000   1.0000   1.0000   1.0000   1.0000   1.0000   1.0000   1.0000
     1.0000   1.0000   1.0000   1.0000   1.0000   1.0000   1.0000   1.0000
     1.0000   1.0000   0.0000   0.0000   0.0000   0.0000   0.0000

     the Fermi energy is    11.7543 ev

     WARNING: integrated charge=    52.00000898, expected=    52.00000000

!    total energy              =   -1006.52549856 Ry
     estimated scf accuracy    <          1.2E-09 Ry
     smearing contrib. (-TS)   =       0.00000010 Ry
     internal energy E=F+TS    =   -1006.52549865 Ry

     The total energy is F=E-TS. E is the sum of the following terms:
     one-electron contribution =    -768.28091650 Ry
     hartree contribution      =     409.92199519 Ry
     xc contribution           =     -99.80463883 Ry
     ewald contribution        =    -529.34428177 Ry
     one-center paw contrib.   =     -19.01765675 Ry
      -> PAW hartree energy AE =      54.60686381 Ry
      -> PAW hartree energy PS =     -54.34339637 Ry
      -> PAW xc energy AE      =     -33.70272141 Ry
      -> PAW xc energy PS      =      14.42159721 Ry
      -> total E_H with PAW    =     410.18546264 Ry
      -> total E_XC with PAW   =    -119.08576303 Ry

     convergence has been achieved in  10 iterations

     Forces acting on atoms (cartesian axes, Ry/au):

     atom    1 type  2   force =     0.00000000    0.00000000    0.00017068
     atom    2 type  2   force =    -0.00000000   -0.00000000    0.00017068
     atom    3 type  1   force =    -0.00000000   -0.00000000   -0.00017068
     atom    4 type  1   force =     0.00000000    0.00000000   -0.00017068
     The non-local contrib.  to forces
     atom    1 type  2   force =     0.00000000    0.00000000   -0.01452254
     atom    2 type  2   force =     0.00000000   -0.00000000   -0.01452254
     atom    3 type  1   force =     0.00000000   -0.00000000    0.00261139
     atom    4 type  1   force =     0.00000000    0.00000000    0.00261139
     The ionic contribution  to forces
     atom    1 type  2   force =    -0.00000067    0.00000039    0.09091600
     atom    2 type  2   force =     0.00000067   -0.00000039    0.09091600
     atom    3 type  1   force =    -0.00000058    0.00000033   -0.09091600
     atom    4 type  1   force =     0.00000058   -0.00000033   -0.09091600
     The local contribution  to forces
     atom    1 type  2   force =    -0.00000924    0.00000533   -0.07621995
     atom    2 type  2   force =     0.00002771   -0.00001600   -0.07622055
     atom    3 type  1   force =    -0.00000053    0.00000031    0.08818580
     atom    4 type  1   force =     0.00000159   -0.00000092    0.08818683
     The core correction contribution to forces
     atom    1 type  2   force =     0.00000000    0.00000000    0.00000000
     atom    2 type  2   force =     0.00000000    0.00000000    0.00000000
     atom    3 type  1   force =    -0.00000000    0.00000000   -0.00004601
     atom    4 type  1   force =     0.00000000   -0.00000000   -0.00004601
     The Hubbard contrib.    to forces
     atom    1 type  2   force =     0.00000000    0.00000000    0.00000000
     atom    2 type  2   force =     0.00000000    0.00000000    0.00000000
     atom    3 type  1   force =     0.00000000    0.00000000    0.00000000
     atom    4 type  1   force =     0.00000000    0.00000000    0.00000000
     The SCF correction term to forces
     atom    1 type  2   force =    -0.00000000    0.00000000    0.00000233
     atom    2 type  2   force =     0.00000000   -0.00000000    0.00000233
     atom    3 type  1   force =    -0.00000000    0.00000000   -0.00000152
     atom    4 type  1   force =     0.00000000   -0.00000000   -0.00000152

     Total force =     0.000341     Total SCF correction =     0.000004


     Computing stress (Cartesian axis) and pressure

          total   stress  (Ry/bohr**3)                   (kbar)     P=      299.89
   0.00204021  -0.00000000   0.00000000          300.12       -0.00        0.00
  -0.00000000   0.00204021   0.00000000           -0.00      300.12        0.00
   0.00000000   0.00000000   0.00203549            0.00        0.00      299.43

     kinetic stress (kbar)  39827.97      0.00     -0.00
                                0.00  39827.97      0.00
                               -0.00      0.00  39864.52

     local   stress (kbar)     80.15     -0.00      0.00
                               -0.00     80.15     -0.00
                                0.00     -0.00  -4801.55

     nonloc. stress (kbar)   -740.16     -0.00      0.00
                               -0.00   -740.16     -0.00
                                0.00     -0.00   -756.81

     hartree stress (kbar)  70263.83     -0.00     -0.00
                               -0.00  70263.83     -0.00
                               -0.00     -0.00  72563.99

     exc-cor stress (kbar) -16111.75      0.00     -0.00
                                0.00 -16111.75      0.00
                               -0.00      0.00 -16111.85

     corecor stress (kbar)   -442.40     -0.00      0.00
                               -0.00   -442.40     -0.00
                                0.00     -0.00   -442.43

     ewald   stress (kbar) -92577.52      0.00     -0.00
                                0.00 -92577.51     -0.00
                               -0.00     -0.00 -90016.45

     hubbard stress (kbar)      0.00      0.00      0.00
                                0.00      0.00      0.00
                                0.00      0.00      0.00

     DFT-D   stress (kbar)      0.00      0.00      0.00
                                0.00      0.00      0.00
                                0.00      0.00      0.00

     XDM     stress (kbar)      0.00      0.00      0.00
                                0.00      0.00      0.00
                                0.00      0.00      0.00

     dft-nl  stress (kbar)      0.00      0.00      0.00
                                0.00      0.00      0.00
                                0.00      0.00      0.00

     TS-vdW  stress (kbar)      0.00      0.00      0.00
                                0.00      0.00      0.00
                                0.00      0.00      0.00

     MDB     stress (kbar)      0.00      0.00      0.00
                                0.00      0.00      0.00
                                0.00      0.00      0.00

     3D-RISM stress (kbar)      0.00      0.00      0.00
                                0.00      0.00      0.00
                                0.00      0.00      0.00


     Writing all to output data dir ./temp_hexag/aiida.save/ :
     XML data file, charge density, pseudopotentials, collected wavefunctions

     init_run     :    238.76s CPU     10.70s WALL (       1 calls)
     electrons    :   4347.63s CPU    200.68s WALL (       1 calls)
     forces       :     65.94s CPU      2.86s WALL (       1 calls)
     stress       :     49.93s CPU      2.62s WALL (       1 calls)

     Called by init_run:
     wfcinit      :    233.31s CPU     10.20s WALL (       1 calls)
     wfcinit:atom :      2.71s CPU      0.14s WALL (      95 calls)
     wfcinit:wfcr :    225.57s CPU      9.72s WALL (      95 calls)
     potinit      :      2.64s CPU      0.14s WALL (       1 calls)
     hinit0       :      1.35s CPU      0.23s WALL (       1 calls)

     Called by electrons:
     c_bands      :   3610.70s CPU    168.30s WALL (      10 calls)
     sum_band     :    710.55s CPU     30.56s WALL (      10 calls)
     v_of_rho     :      6.04s CPU      0.26s WALL (      11 calls)
     v_h          :      0.88s CPU      0.04s WALL (      11 calls)
     v_xc         :      5.79s CPU      0.24s WALL (      13 calls)
     newd         :     12.20s CPU      1.09s WALL (      11 calls)
     PAW_pot      :     10.34s CPU      0.44s WALL (      11 calls)
     mix_rho      :      1.04s CPU      0.06s WALL (      10 calls)

     Called by c_bands:
     init_us_2    :     31.96s CPU      1.60s WALL (    2185 calls)
     cegterg      :   3541.43s CPU    164.72s WALL (     950 calls)

     Called by sum_band:
     sum_band:wei :      0.28s CPU      0.02s WALL (      10 calls)
     sum_band:loo :    705.61s CPU     29.48s WALL (      10 calls)
     sum_band:buf :      2.48s CPU      0.10s WALL (     950 calls)
     sum_band:ini :     14.63s CPU      0.55s WALL (     950 calls)
     sum_band:cal :     95.77s CPU      3.98s WALL (     950 calls)
     sum_band:bec :     24.24s CPU      1.06s WALL (     950 calls)
     addusdens    :      4.26s CPU      0.96s WALL (      10 calls)
                                        0.00s GPU  (      10 calls)
     addusd:skk   :      0.22s CPU      0.00s WALL (      20 calls)
                                        0.00s GPU  (      20 calls)

     Called by *egterg:
     cdiaghg      :     76.19s CPU      2.64s WALL (    3231 calls)
     cegterg:over :    257.76s CPU     10.73s WALL (    2281 calls)
     cegterg:upda :    107.16s CPU      7.38s WALL (    2281 calls)
     cegterg:last :     76.51s CPU     11.32s WALL (    1829 calls)
     h_psi        :   2873.46s CPU    123.56s WALL (    3326 calls)
     s_psi        :    190.96s CPU     10.20s WALL (    3326 calls)
     g_psi        :     17.33s CPU      0.97s WALL (    2281 calls)

     Called by h_psi:
     h_psi:calbec :    215.67s CPU      9.23s WALL (    3326 calls)
     vloc_psi     :   2349.31s CPU    102.80s WALL (    3326 calls)
     add_vuspsi   :    280.65s CPU      9.99s WALL (    3326 calls)

     General routines
     calbec       :    357.71s CPU     15.13s WALL (    4751 calls)
     fft          :      5.09s CPU      0.23s WALL (     166 calls)
     ffts         :      0.01s CPU      0.01s WALL (      21 calls)
     fftw         :   1049.32s CPU     47.87s WALL (  175606 calls)
     interpolate  :      0.23s CPU      0.02s WALL (      11 calls)

     Parallel routines

     PAW routines
     PAW_pot      :     10.34s CPU      0.44s WALL (      11 calls)
     PAW_symme    :      0.00s CPU      0.00s WALL (      21 calls)

     PWSCF        :      1h18m CPU   3m38.76s WALL


   This run was terminated on:   0: 1:47  12Jun2024            

=------------------------------------------------------------------------------=
   JOB DONE.
=------------------------------------------------------------------------------=
