
     Program PWSCF v.7.3.1 starts on 14Jun2024 at 23:42:53 

     This program is part of the open-source Quantum ESPRESSO suite
     for quantum simulation of materials; please cite
         "P. Giannozzi et al., J. Phys.:Condens. Matter 21 395502 (2009);
         "P. Giannozzi et al., J. Phys.:Condens. Matter 29 465901 (2017);
         "P. Giannozzi et al., J. Chem. Phys. 152 154105 (2020);
          URL http://www.quantum-espresso.org", 
     in publications or presentations arising from this work. More details at
     http://www.quantum-espresso.org/quote

     Parallel version (MPI & OpenMP), running on      24 processor cores
     Number of MPI processes:                 1
     Threads/MPI process:                    24

     MPI processes distributed on     1 nodes
     5254 MiB available memory on the printing compute node when the environment starts

     Waiting for input...
     Reading input from standard input

     Current dimensions of program PWSCF are:
     Max number of different atomic species (ntypx) = 10
     Max number of k-points (npk) =  40000
     Max angular momentum in pseudopotentials (lmaxx) =  4
     file O.pbe-n-kjpaw_psl.0.1.UPF: wavefunction(s)  2P renormalized
     Message from routine setup:
     using ibrav=0 with symmetry is DISCOURAGED, use correct ibrav instead

     Subspace diagonalization in iterative solution of the eigenvalue problem:
     a serial algorithm will be used


     G-vector sticks info
     --------------------
     sticks:   dense  smooth     PW     G-vecs:    dense   smooth      PW
     Sum        1039     511    163                43249    15281    2617

     Using Slab Decomposition



     bravais-lattice index     =            0
     lattice parameter (alat)  =       6.1177  a.u.
     unit-cell volume          =     319.8198 (a.u.)^3
     number of atoms/cell      =            4
     number of atomic types    =            2
     number of electrons       =        52.00
     number of Kohn-Sham states=           31
     kinetic-energy cutoff     =      50.0000  Ry
     charge density cutoff     =     400.0000  Ry
     scf convergence threshold =      2.0E-08
     mixing beta               =       0.4000
     number of iterations used =            8  plain     mixing
     Exchange-correlation= SLA  PW   PBE  PBE
                           (   1   4   3   4   0   0   0)

     celldm(1)=   6.117707  celldm(2)=   0.000000  celldm(3)=   0.000000
     celldm(4)=   0.000000  celldm(5)=   0.000000  celldm(6)=   0.000000

     crystal axes: (cart. coord. in units of alat)
               a(1) = (   1.000000   0.000000   0.000000 )  
               a(2) = (  -0.500000   0.866025   0.008660 )  
               a(3) = (   0.000000   0.016131   1.613066 )  

     reciprocal axes: (cart. coord. in units 2 pi/alat)
               b(1) = (  1.000000  0.577408 -0.005774 )  
               b(2) = (  0.000000  1.154816 -0.011548 )  
               b(3) = (  0.000000 -0.006200  0.619999 )  


     PseudoPot. # 1 for O  read from file:
     ../SSSP_1.3.0_PBE_efficiency/O.pbe-n-kjpaw_psl.0.1.UPF
     MD5 check sum: 0234752ac141de4415c5fc33072bef88
     Pseudo is Projector augmented-wave + core cor, Zval =  6.0
     Generated using "atomic" code by A. Dal Corso  v.5.0.99 svn rev. 10869
     Shape of augmentation charge: BESSEL
     Using radial grid of 1095 points,  4 beta functions with: 
                l(1) =   0
                l(2) =   0
                l(3) =   1
                l(4) =   1
     Q(r) pseudized with 0 coefficients 


     PseudoPot. # 2 for Zn read from file:
     ../SSSP_1.3.0_PBE_efficiency/Zn_pbe_v1.uspp.F.UPF
     MD5 check sum: df62231357ef9e81f77b2b3087fa5675
     Pseudo is Ultrasoft, Zval = 20.0
     Generated by new atomic code, or converted to UPF format
     Using radial grid of  943 points,  6 beta functions with: 
                l(1) =   0
                l(2) =   0
                l(3) =   1
                l(4) =   1
                l(5) =   2
                l(6) =   2
     Q(r) pseudized with  8 coefficients,  rinner =    1.100   1.100   1.100
                                                       1.100   1.100

     atomic species   valence    mass     pseudopotential
     O                 6.00    15.99940     O ( 1.00)
     Zn               20.00    65.38000     Zn( 1.00)

      2 Sym. Ops. (no inversion) found


                                    s                        frac. trans.

      isym =  1     identity                                     

 cryst.   s( 1) = (     1          0          0      )
                  (     0          1          0      )
                  (     0          0          1      )

 cart.    s( 1) = (  1.0000000  0.0000000  0.0000000 )
                  (  0.0000000  1.0000000  0.0000000 )
                  (  0.0000000  0.0000000  1.0000000 )


      isym =  2     inv. 180 deg rotation - cart. axis [1,0,0]   

 cryst.   s( 2) = (    -1          0          0      )
                  (     1          1          0      )
                  (     0          0          1      )

 cart.    s( 2) = ( -1.0000000  0.0000000  0.0000000 )
                  (  0.0000000  1.0000000  0.0000000 )
                  (  0.0000000  0.0000000  1.0000000 )


   Cartesian axes

     site n.     atom                  positions (alat units)
         1        Zn     tau(   1) = (   0.5000000   0.2967500   0.8103743  )
         2        Zn     tau(   2) = (  -0.0000000   0.5773598   0.0067280  )
         3        O      tau(   3) = (   0.5000000   0.3028656   1.4219306  )
         4        O      tau(   4) = (  -0.0000000   0.5834754   0.6182842  )

   Crystallographic axes

     site n.     atom                  positions (cryst. coord.)
         1        Zn     tau(   1) = (  0.6666667  0.3333333  0.5005917  )
         2        Zn     tau(   2) = (  0.3333333  0.6666667  0.0005917  )
         3        O      tau(   3) = (  0.6666667  0.3333333  0.8797183  )
         4        O      tau(   4) = (  0.3333333  0.6666667  0.3797183  )

     number of k points=   320  Marzari-Vanderbilt smearing, width (Ry)=  0.0147
                       cart. coord. in units 2pi/alat
        k(    1) = (   0.0000000   0.0000000   0.0000000), wk =   0.0017361
        k(    2) = (   0.0000000  -0.0007750   0.0774999), wk =   0.0034722
        k(    3) = (   0.0000000  -0.0015500   0.1549998), wk =   0.0034722
        k(    4) = (   0.0000000  -0.0023250   0.2324998), wk =   0.0034722
        k(    5) = (   0.0000000   0.0031000  -0.3099997), wk =   0.0017361
        k(    6) = (   0.0000000   0.0962347  -0.0009623), wk =   0.0034722
        k(    7) = (   0.0000000   0.0954597   0.0765376), wk =   0.0034722
        k(    8) = (   0.0000000   0.0946847   0.1540375), wk =   0.0034722
        k(    9) = (   0.0000000   0.0939097   0.2315374), wk =   0.0034722
        k(   10) = (   0.0000000   0.0993347  -0.3109620), wk =   0.0034722
        k(   11) = (   0.0000000   0.0985597  -0.2334621), wk =   0.0034722
        k(   12) = (   0.0000000   0.0977847  -0.1559622), wk =   0.0034722
        k(   13) = (   0.0000000   0.0970097  -0.0784623), wk =   0.0034722
        k(   14) = (   0.0000000   0.1924693  -0.0019247), wk =   0.0034722
        k(   15) = (   0.0000000   0.1916943   0.0755752), wk =   0.0034722
        k(   16) = (   0.0000000   0.1909193   0.1530752), wk =   0.0034722
        k(   17) = (   0.0000000   0.1901443   0.2305751), wk =   0.0034722
        k(   18) = (   0.0000000   0.1955693  -0.3119244), wk =   0.0034722
        k(   19) = (   0.0000000   0.1947943  -0.2344245), wk =   0.0034722
        k(   20) = (   0.0000000   0.1940193  -0.1569245), wk =   0.0034722
        k(   21) = (   0.0000000   0.1932443  -0.0794246), wk =   0.0034722
        k(   22) = (   0.0000000   0.2887040  -0.0028870), wk =   0.0034722
        k(   23) = (   0.0000000   0.2879290   0.0746129), wk =   0.0034722
        k(   24) = (   0.0000000   0.2871540   0.1521128), wk =   0.0034722
        k(   25) = (   0.0000000   0.2863790   0.2296127), wk =   0.0034722
        k(   26) = (   0.0000000   0.2918040  -0.3128867), wk =   0.0034722
        k(   27) = (   0.0000000   0.2910290  -0.2353868), wk =   0.0034722
        k(   28) = (   0.0000000   0.2902540  -0.1578869), wk =   0.0034722
        k(   29) = (   0.0000000   0.2894790  -0.0803870), wk =   0.0034722
        k(   30) = (   0.0000000   0.3849387  -0.0038494), wk =   0.0034722
        k(   31) = (   0.0000000   0.3841637   0.0736505), wk =   0.0034722
        k(   32) = (   0.0000000   0.3833887   0.1511505), wk =   0.0034722
        k(   33) = (   0.0000000   0.3826137   0.2286504), wk =   0.0034722
        k(   34) = (   0.0000000   0.3880387  -0.3138491), wk =   0.0034722
        k(   35) = (   0.0000000   0.3872637  -0.2363492), wk =   0.0034722
        k(   36) = (   0.0000000   0.3864887  -0.1588492), wk =   0.0034722
        k(   37) = (   0.0000000   0.3857137  -0.0813493), wk =   0.0034722
        k(   38) = (   0.0000000   0.4811733  -0.0048117), wk =   0.0034722
        k(   39) = (   0.0000000   0.4803983   0.0726882), wk =   0.0034722
        k(   40) = (   0.0000000   0.4796233   0.1501881), wk =   0.0034722
        k(   41) = (   0.0000000   0.4788483   0.2276880), wk =   0.0034722
        k(   42) = (   0.0000000   0.4842733  -0.3148114), wk =   0.0034722
        k(   43) = (   0.0000000   0.4834983  -0.2373115), wk =   0.0034722
        k(   44) = (   0.0000000   0.4827233  -0.1598116), wk =   0.0034722
        k(   45) = (   0.0000000   0.4819483  -0.0823117), wk =   0.0034722
        k(   46) = (   0.0000000  -0.5774080   0.0057741), wk =   0.0017361
        k(   47) = (   0.0000000  -0.5781830   0.0832740), wk =   0.0034722
        k(   48) = (   0.0000000  -0.5789580   0.1607739), wk =   0.0034722
        k(   49) = (   0.0000000  -0.5797330   0.2382738), wk =   0.0034722
        k(   50) = (   0.0000000  -0.5743080  -0.3042256), wk =   0.0017361
        k(   51) = (   0.0833333   0.0481173  -0.0004812), wk =   0.0069444
        k(   52) = (   0.0833333   0.0473423   0.0770187), wk =   0.0069444
        k(   53) = (   0.0833333   0.0465673   0.1545187), wk =   0.0069444
        k(   54) = (   0.0833333   0.0457923   0.2320186), wk =   0.0069444
        k(   55) = (   0.0833333   0.0512173  -0.3104809), wk =   0.0069444
        k(   56) = (   0.0833333   0.0504423  -0.2329809), wk =   0.0069444
        k(   57) = (   0.0833333   0.0496673  -0.1554810), wk =   0.0069444
        k(   58) = (   0.0833333   0.0488923  -0.0779811), wk =   0.0069444
        k(   59) = (   0.0833333   0.1443520  -0.0014435), wk =   0.0069444
        k(   60) = (   0.0833333   0.1435770   0.0760564), wk =   0.0069444
        k(   61) = (   0.0833333   0.1428020   0.1535563), wk =   0.0069444
        k(   62) = (   0.0833333   0.1420270   0.2310562), wk =   0.0069444
        k(   63) = (   0.0833333   0.1474520  -0.3114432), wk =   0.0069444
        k(   64) = (   0.0833333   0.1466770  -0.2339433), wk =   0.0069444
        k(   65) = (   0.0833333   0.1459020  -0.1564434), wk =   0.0069444
        k(   66) = (   0.0833333   0.1451270  -0.0789434), wk =   0.0069444
        k(   67) = (   0.0833333   0.2405867  -0.0024059), wk =   0.0069444
        k(   68) = (   0.0833333   0.2398117   0.0750941), wk =   0.0069444
        k(   69) = (   0.0833333   0.2390367   0.1525940), wk =   0.0069444
        k(   70) = (   0.0833333   0.2382617   0.2300939), wk =   0.0069444
        k(   71) = (   0.0833333   0.2436867  -0.3124056), wk =   0.0069444
        k(   72) = (   0.0833333   0.2429117  -0.2349056), wk =   0.0069444
        k(   73) = (   0.0833333   0.2421367  -0.1574057), wk =   0.0069444
        k(   74) = (   0.0833333   0.2413617  -0.0799058), wk =   0.0069444
        k(   75) = (   0.0833333   0.3368213  -0.0033682), wk =   0.0069444
        k(   76) = (   0.0833333   0.3360463   0.0741317), wk =   0.0069444
        k(   77) = (   0.0833333   0.3352713   0.1516316), wk =   0.0069444
        k(   78) = (   0.0833333   0.3344963   0.2291316), wk =   0.0069444
        k(   79) = (   0.0833333   0.3399213  -0.3133679), wk =   0.0069444
        k(   80) = (   0.0833333   0.3391463  -0.2358680), wk =   0.0069444
        k(   81) = (   0.0833333   0.3383713  -0.1583681), wk =   0.0069444
        k(   82) = (   0.0833333   0.3375963  -0.0808681), wk =   0.0069444
        k(   83) = (   0.0833333   0.4330560  -0.0043306), wk =   0.0069444
        k(   84) = (   0.0833333   0.4322810   0.0731694), wk =   0.0069444
        k(   85) = (   0.0833333   0.4315060   0.1506693), wk =   0.0069444
        k(   86) = (   0.0833333   0.4307310   0.2281692), wk =   0.0069444
        k(   87) = (   0.0833333   0.4361560  -0.3143303), wk =   0.0069444
        k(   88) = (   0.0833333   0.4353810  -0.2368303), wk =   0.0069444
        k(   89) = (   0.0833333   0.4346060  -0.1593304), wk =   0.0069444
        k(   90) = (   0.0833333   0.4338310  -0.0818305), wk =   0.0069444
        k(   91) = (   0.0833333   0.5292907  -0.0052929), wk =   0.0069444
        k(   92) = (   0.0833333   0.5285157   0.0722070), wk =   0.0069444
        k(   93) = (   0.0833333   0.5277407   0.1497069), wk =   0.0069444
        k(   94) = (   0.0833333   0.5269657   0.2272069), wk =   0.0069444
        k(   95) = (   0.0833333   0.5323907  -0.3152926), wk =   0.0069444
        k(   96) = (   0.0833333   0.5316157  -0.2377927), wk =   0.0069444
        k(   97) = (   0.0833333   0.5308407  -0.1602928), wk =   0.0069444
        k(   98) = (   0.0833333   0.5300657  -0.0827928), wk =   0.0069444
        k(   99) = (   0.1666667   0.0962347  -0.0009623), wk =   0.0069444
        k(  100) = (   0.1666667   0.0954597   0.0765376), wk =   0.0069444
        k(  101) = (   0.1666667   0.0946847   0.1540375), wk =   0.0069444
        k(  102) = (   0.1666667   0.0939097   0.2315374), wk =   0.0069444
        k(  103) = (   0.1666667   0.0993347  -0.3109620), wk =   0.0069444
        k(  104) = (   0.1666667   0.0985597  -0.2334621), wk =   0.0069444
        k(  105) = (   0.1666667   0.0977847  -0.1559622), wk =   0.0069444
        k(  106) = (   0.1666667   0.0970097  -0.0784623), wk =   0.0069444
        k(  107) = (   0.1666667   0.1924693  -0.0019247), wk =   0.0069444
        k(  108) = (   0.1666667   0.1916943   0.0755752), wk =   0.0069444
        k(  109) = (   0.1666667   0.1909193   0.1530752), wk =   0.0069444
        k(  110) = (   0.1666667   0.1901443   0.2305751), wk =   0.0069444
        k(  111) = (   0.1666667   0.1955693  -0.3119244), wk =   0.0069444
        k(  112) = (   0.1666667   0.1947943  -0.2344245), wk =   0.0069444
        k(  113) = (   0.1666667   0.1940193  -0.1569245), wk =   0.0069444
        k(  114) = (   0.1666667   0.1932443  -0.0794246), wk =   0.0069444
        k(  115) = (   0.1666667   0.2887040  -0.0028870), wk =   0.0069444
        k(  116) = (   0.1666667   0.2879290   0.0746129), wk =   0.0069444
        k(  117) = (   0.1666667   0.2871540   0.1521128), wk =   0.0069444
        k(  118) = (   0.1666667   0.2863790   0.2296127), wk =   0.0069444
        k(  119) = (   0.1666667   0.2918040  -0.3128867), wk =   0.0069444
        k(  120) = (   0.1666667   0.2910290  -0.2353868), wk =   0.0069444
        k(  121) = (   0.1666667   0.2902540  -0.1578869), wk =   0.0069444
        k(  122) = (   0.1666667   0.2894790  -0.0803870), wk =   0.0069444
        k(  123) = (   0.1666667   0.3849387  -0.0038494), wk =   0.0069444
        k(  124) = (   0.1666667   0.3841637   0.0736505), wk =   0.0069444
        k(  125) = (   0.1666667   0.3833887   0.1511505), wk =   0.0069444
        k(  126) = (   0.1666667   0.3826137   0.2286504), wk =   0.0069444
        k(  127) = (   0.1666667   0.3880387  -0.3138491), wk =   0.0069444
        k(  128) = (   0.1666667   0.3872637  -0.2363492), wk =   0.0069444
        k(  129) = (   0.1666667   0.3864887  -0.1588492), wk =   0.0069444
        k(  130) = (   0.1666667   0.3857137  -0.0813493), wk =   0.0069444
        k(  131) = (   0.1666667   0.4811733  -0.0048117), wk =   0.0069444
        k(  132) = (   0.1666667   0.4803983   0.0726882), wk =   0.0069444
        k(  133) = (   0.1666667   0.4796233   0.1501881), wk =   0.0069444
        k(  134) = (   0.1666667   0.4788483   0.2276880), wk =   0.0069444
        k(  135) = (   0.1666667   0.4842733  -0.3148114), wk =   0.0069444
        k(  136) = (   0.1666667   0.4834983  -0.2373115), wk =   0.0069444
        k(  137) = (   0.1666667   0.4827233  -0.1598116), wk =   0.0069444
        k(  138) = (   0.1666667   0.4819483  -0.0823117), wk =   0.0069444
        k(  139) = (   0.1666667   0.5774080  -0.0057741), wk =   0.0034722
        k(  140) = (   0.1666667   0.5766330   0.0717258), wk =   0.0069444
        k(  141) = (   0.1666667   0.5758580   0.1492258), wk =   0.0069444
        k(  142) = (   0.1666667   0.5750830   0.2267257), wk =   0.0069444
        k(  143) = (   0.1666667   0.5805080  -0.3157738), wk =   0.0034722
        k(  144) = (   0.1666667  -0.0000000   0.0000000), wk =   0.0034722
        k(  145) = (   0.1666667  -0.0007750   0.0774999), wk =   0.0069444
        k(  146) = (   0.1666667  -0.0015500   0.1549998), wk =   0.0069444
        k(  147) = (   0.1666667  -0.0023250   0.2324998), wk =   0.0069444
        k(  148) = (   0.1666667   0.0031000  -0.3099997), wk =   0.0034722
        k(  149) = (   0.2500000   0.1443520  -0.0014435), wk =   0.0069444
        k(  150) = (   0.2500000   0.1435770   0.0760564), wk =   0.0069444
        k(  151) = (   0.2500000   0.1428020   0.1535563), wk =   0.0069444
        k(  152) = (   0.2500000   0.1420270   0.2310562), wk =   0.0069444
        k(  153) = (   0.2500000   0.1474520  -0.3114432), wk =   0.0069444
        k(  154) = (   0.2500000   0.1466770  -0.2339433), wk =   0.0069444
        k(  155) = (   0.2500000   0.1459020  -0.1564434), wk =   0.0069444
        k(  156) = (   0.2500000   0.1451270  -0.0789434), wk =   0.0069444
        k(  157) = (   0.2500000   0.2405867  -0.0024059), wk =   0.0069444
        k(  158) = (   0.2500000   0.2398117   0.0750941), wk =   0.0069444
        k(  159) = (   0.2500000   0.2390367   0.1525940), wk =   0.0069444
        k(  160) = (   0.2500000   0.2382617   0.2300939), wk =   0.0069444
        k(  161) = (   0.2500000   0.2436867  -0.3124056), wk =   0.0069444
        k(  162) = (   0.2500000   0.2429117  -0.2349056), wk =   0.0069444
        k(  163) = (   0.2500000   0.2421367  -0.1574057), wk =   0.0069444
        k(  164) = (   0.2500000   0.2413617  -0.0799058), wk =   0.0069444
        k(  165) = (   0.2500000   0.3368213  -0.0033682), wk =   0.0069444
        k(  166) = (   0.2500000   0.3360463   0.0741317), wk =   0.0069444
        k(  167) = (   0.2500000   0.3352713   0.1516316), wk =   0.0069444
        k(  168) = (   0.2500000   0.3344963   0.2291316), wk =   0.0069444
        k(  169) = (   0.2500000   0.3399213  -0.3133679), wk =   0.0069444
        k(  170) = (   0.2500000   0.3391463  -0.2358680), wk =   0.0069444
        k(  171) = (   0.2500000   0.3383713  -0.1583681), wk =   0.0069444
        k(  172) = (   0.2500000   0.3375963  -0.0808681), wk =   0.0069444
        k(  173) = (   0.2500000   0.4330560  -0.0043306), wk =   0.0069444
        k(  174) = (   0.2500000   0.4322810   0.0731694), wk =   0.0069444
        k(  175) = (   0.2500000   0.4315060   0.1506693), wk =   0.0069444
        k(  176) = (   0.2500000   0.4307310   0.2281692), wk =   0.0069444
        k(  177) = (   0.2500000   0.4361560  -0.3143303), wk =   0.0069444
        k(  178) = (   0.2500000   0.4353810  -0.2368303), wk =   0.0069444
        k(  179) = (   0.2500000   0.4346060  -0.1593304), wk =   0.0069444
        k(  180) = (   0.2500000   0.4338310  -0.0818305), wk =   0.0069444
        k(  181) = (   0.2500000   0.5292907  -0.0052929), wk =   0.0069444
        k(  182) = (   0.2500000   0.5285157   0.0722070), wk =   0.0069444
        k(  183) = (   0.2500000   0.5277407   0.1497069), wk =   0.0069444
        k(  184) = (   0.2500000   0.5269657   0.2272069), wk =   0.0069444
        k(  185) = (   0.2500000   0.5323907  -0.3152926), wk =   0.0069444
        k(  186) = (   0.2500000   0.5316157  -0.2377927), wk =   0.0069444
        k(  187) = (   0.2500000   0.5308407  -0.1602928), wk =   0.0069444
        k(  188) = (   0.2500000   0.5300657  -0.0827928), wk =   0.0069444
        k(  189) = (   0.2500000  -0.0481173   0.0004812), wk =   0.0069444
        k(  190) = (   0.2500000  -0.0488923   0.0779811), wk =   0.0069444
        k(  191) = (   0.2500000  -0.0496673   0.1554810), wk =   0.0069444
        k(  192) = (   0.2500000  -0.0504423   0.2329809), wk =   0.0069444
        k(  193) = (   0.2500000  -0.0450173  -0.3095185), wk =   0.0069444
        k(  194) = (   0.2500000  -0.0457923  -0.2320186), wk =   0.0069444
        k(  195) = (   0.2500000  -0.0465673  -0.1545187), wk =   0.0069444
        k(  196) = (   0.2500000  -0.0473423  -0.0770187), wk =   0.0069444
        k(  197) = (   0.3333333   0.1924693  -0.0019247), wk =   0.0069444
        k(  198) = (   0.3333333   0.1916943   0.0755752), wk =   0.0069444
        k(  199) = (   0.3333333   0.1909193   0.1530752), wk =   0.0069444
        k(  200) = (   0.3333333   0.1901443   0.2305751), wk =   0.0069444
        k(  201) = (   0.3333333   0.1955693  -0.3119244), wk =   0.0069444
        k(  202) = (   0.3333333   0.1947943  -0.2344245), wk =   0.0069444
        k(  203) = (   0.3333333   0.1940193  -0.1569245), wk =   0.0069444
        k(  204) = (   0.3333333   0.1932443  -0.0794246), wk =   0.0069444
        k(  205) = (   0.3333333   0.2887040  -0.0028870), wk =   0.0069444
        k(  206) = (   0.3333333   0.2879290   0.0746129), wk =   0.0069444
        k(  207) = (   0.3333333   0.2871540   0.1521128), wk =   0.0069444
        k(  208) = (   0.3333333   0.2863790   0.2296127), wk =   0.0069444
        k(  209) = (   0.3333333   0.2918040  -0.3128867), wk =   0.0069444
        k(  210) = (   0.3333333   0.2910290  -0.2353868), wk =   0.0069444
        k(  211) = (   0.3333333   0.2902540  -0.1578869), wk =   0.0069444
        k(  212) = (   0.3333333   0.2894790  -0.0803870), wk =   0.0069444
        k(  213) = (   0.3333333   0.3849387  -0.0038494), wk =   0.0069444
        k(  214) = (   0.3333333   0.3841637   0.0736505), wk =   0.0069444
        k(  215) = (   0.3333333   0.3833887   0.1511505), wk =   0.0069444
        k(  216) = (   0.3333333   0.3826137   0.2286504), wk =   0.0069444
        k(  217) = (   0.3333333   0.3880387  -0.3138491), wk =   0.0069444
        k(  218) = (   0.3333333   0.3872637  -0.2363492), wk =   0.0069444
        k(  219) = (   0.3333333   0.3864887  -0.1588492), wk =   0.0069444
        k(  220) = (   0.3333333   0.3857137  -0.0813493), wk =   0.0069444
        k(  221) = (   0.3333333   0.4811733  -0.0048117), wk =   0.0069444
        k(  222) = (   0.3333333   0.4803983   0.0726882), wk =   0.0069444
        k(  223) = (   0.3333333   0.4796233   0.1501881), wk =   0.0069444
        k(  224) = (   0.3333333   0.4788483   0.2276880), wk =   0.0069444
        k(  225) = (   0.3333333   0.4842733  -0.3148114), wk =   0.0069444
        k(  226) = (   0.3333333   0.4834983  -0.2373115), wk =   0.0069444
        k(  227) = (   0.3333333   0.4827233  -0.1598116), wk =   0.0069444
        k(  228) = (   0.3333333   0.4819483  -0.0823117), wk =   0.0069444
        k(  229) = (   0.3333333   0.5774080  -0.0057741), wk =   0.0034722
        k(  230) = (   0.3333333   0.5766330   0.0717258), wk =   0.0069444
        k(  231) = (   0.3333333   0.5758580   0.1492258), wk =   0.0069444
        k(  232) = (   0.3333333   0.5750830   0.2267257), wk =   0.0069444
        k(  233) = (   0.3333333   0.5805080  -0.3157738), wk =   0.0034722
        k(  234) = (   0.3333333  -0.0962347   0.0009623), wk =   0.0069444
        k(  235) = (   0.3333333  -0.0970097   0.0784623), wk =   0.0069444
        k(  236) = (   0.3333333  -0.0977847   0.1559622), wk =   0.0069444
        k(  237) = (   0.3333333  -0.0985597   0.2334621), wk =   0.0069444
        k(  238) = (   0.3333333  -0.0931347  -0.3090373), wk =   0.0069444
        k(  239) = (   0.3333333  -0.0939097  -0.2315374), wk =   0.0069444
        k(  240) = (   0.3333333  -0.0946847  -0.1540375), wk =   0.0069444
        k(  241) = (   0.3333333  -0.0954597  -0.0765376), wk =   0.0069444
        k(  242) = (   0.3333333   0.0000000  -0.0000000), wk =   0.0034722
        k(  243) = (   0.3333333  -0.0007750   0.0774999), wk =   0.0069444
        k(  244) = (   0.3333333  -0.0015500   0.1549998), wk =   0.0069444
        k(  245) = (   0.3333333  -0.0023250   0.2324998), wk =   0.0069444
        k(  246) = (   0.3333333   0.0031000  -0.3099997), wk =   0.0034722
        k(  247) = (   0.4166667   0.2405867  -0.0024059), wk =   0.0069444
        k(  248) = (   0.4166667   0.2398117   0.0750941), wk =   0.0069444
        k(  249) = (   0.4166667   0.2390367   0.1525940), wk =   0.0069444
        k(  250) = (   0.4166667   0.2382617   0.2300939), wk =   0.0069444
        k(  251) = (   0.4166667   0.2436867  -0.3124056), wk =   0.0069444
        k(  252) = (   0.4166667   0.2429117  -0.2349056), wk =   0.0069444
        k(  253) = (   0.4166667   0.2421367  -0.1574057), wk =   0.0069444
        k(  254) = (   0.4166667   0.2413617  -0.0799058), wk =   0.0069444
        k(  255) = (   0.4166667   0.3368213  -0.0033682), wk =   0.0069444
        k(  256) = (   0.4166667   0.3360463   0.0741317), wk =   0.0069444
        k(  257) = (   0.4166667   0.3352713   0.1516316), wk =   0.0069444
        k(  258) = (   0.4166667   0.3344963   0.2291316), wk =   0.0069444
        k(  259) = (   0.4166667   0.3399213  -0.3133679), wk =   0.0069444
        k(  260) = (   0.4166667   0.3391463  -0.2358680), wk =   0.0069444
        k(  261) = (   0.4166667   0.3383713  -0.1583681), wk =   0.0069444
        k(  262) = (   0.4166667   0.3375963  -0.0808681), wk =   0.0069444
        k(  263) = (   0.4166667   0.4330560  -0.0043306), wk =   0.0069444
        k(  264) = (   0.4166667   0.4322810   0.0731694), wk =   0.0069444
        k(  265) = (   0.4166667   0.4315060   0.1506693), wk =   0.0069444
        k(  266) = (   0.4166667   0.4307310   0.2281692), wk =   0.0069444
        k(  267) = (   0.4166667   0.4361560  -0.3143303), wk =   0.0069444
        k(  268) = (   0.4166667   0.4353810  -0.2368303), wk =   0.0069444
        k(  269) = (   0.4166667   0.4346060  -0.1593304), wk =   0.0069444
        k(  270) = (   0.4166667   0.4338310  -0.0818305), wk =   0.0069444
        k(  271) = (   0.4166667   0.5292907  -0.0052929), wk =   0.0069444
        k(  272) = (   0.4166667   0.5285157   0.0722070), wk =   0.0069444
        k(  273) = (   0.4166667   0.5277407   0.1497069), wk =   0.0069444
        k(  274) = (   0.4166667   0.5269657   0.2272069), wk =   0.0069444
        k(  275) = (   0.4166667   0.5323907  -0.3152926), wk =   0.0069444
        k(  276) = (   0.4166667   0.5316157  -0.2377927), wk =   0.0069444
        k(  277) = (   0.4166667   0.5308407  -0.1602928), wk =   0.0069444
        k(  278) = (   0.4166667   0.5300657  -0.0827928), wk =   0.0069444
        k(  279) = (   0.4166667  -0.1443520   0.0014435), wk =   0.0069444
        k(  280) = (   0.4166667  -0.1451270   0.0789434), wk =   0.0069444
        k(  281) = (   0.4166667  -0.1459020   0.1564434), wk =   0.0069444
        k(  282) = (   0.4166667  -0.1466770   0.2339433), wk =   0.0069444
        k(  283) = (   0.4166667  -0.1412520  -0.3085562), wk =   0.0069444
        k(  284) = (   0.4166667  -0.1420270  -0.2310562), wk =   0.0069444
        k(  285) = (   0.4166667  -0.1428020  -0.1535563), wk =   0.0069444
        k(  286) = (   0.4166667  -0.1435770  -0.0760564), wk =   0.0069444
        k(  287) = (   0.4166667  -0.0481173   0.0004812), wk =   0.0069444
        k(  288) = (   0.4166667  -0.0488923   0.0779811), wk =   0.0069444
        k(  289) = (   0.4166667  -0.0496673   0.1554810), wk =   0.0069444
        k(  290) = (   0.4166667  -0.0504423   0.2329809), wk =   0.0069444
        k(  291) = (   0.4166667  -0.0450173  -0.3095185), wk =   0.0069444
        k(  292) = (   0.4166667  -0.0457923  -0.2320186), wk =   0.0069444
        k(  293) = (   0.4166667  -0.0465673  -0.1545187), wk =   0.0069444
        k(  294) = (   0.4166667  -0.0473423  -0.0770187), wk =   0.0069444
        k(  295) = (  -0.5000000  -0.2887040   0.0028870), wk =   0.0034722
        k(  296) = (  -0.5000000  -0.2894790   0.0803870), wk =   0.0069444
        k(  297) = (  -0.5000000  -0.2902540   0.1578869), wk =   0.0069444
        k(  298) = (  -0.5000000  -0.2910290   0.2353868), wk =   0.0069444
        k(  299) = (  -0.5000000  -0.2856040  -0.3071127), wk =   0.0034722
        k(  300) = (  -0.5000000  -0.1924693   0.0019247), wk =   0.0069444
        k(  301) = (  -0.5000000  -0.1932443   0.0794246), wk =   0.0069444
        k(  302) = (  -0.5000000  -0.1940193   0.1569245), wk =   0.0069444
        k(  303) = (  -0.5000000  -0.1947943   0.2344245), wk =   0.0069444
        k(  304) = (  -0.5000000  -0.1893693  -0.3080750), wk =   0.0069444
        k(  305) = (  -0.5000000  -0.1901443  -0.2305751), wk =   0.0069444
        k(  306) = (  -0.5000000  -0.1909193  -0.1530752), wk =   0.0069444
        k(  307) = (  -0.5000000  -0.1916943  -0.0755752), wk =   0.0069444
        k(  308) = (  -0.5000000  -0.0962347   0.0009623), wk =   0.0069444
        k(  309) = (  -0.5000000  -0.0970097   0.0784623), wk =   0.0069444
        k(  310) = (  -0.5000000  -0.0977847   0.1559622), wk =   0.0069444
        k(  311) = (  -0.5000000  -0.0985597   0.2334621), wk =   0.0069444
        k(  312) = (  -0.5000000  -0.0931347  -0.3090373), wk =   0.0069444
        k(  313) = (  -0.5000000  -0.0939097  -0.2315374), wk =   0.0069444
        k(  314) = (  -0.5000000  -0.0946847  -0.1540375), wk =   0.0069444
        k(  315) = (  -0.5000000  -0.0954597  -0.0765376), wk =   0.0069444
        k(  316) = (  -0.5000000   0.0000000   0.0000000), wk =   0.0034722
        k(  317) = (  -0.5000000  -0.0007750   0.0774999), wk =   0.0069444
        k(  318) = (  -0.5000000  -0.0015500   0.1549998), wk =   0.0069444
        k(  319) = (  -0.5000000  -0.0023250   0.2324998), wk =   0.0069444
        k(  320) = (  -0.5000000   0.0031000  -0.3099997), wk =   0.0034722

                       cryst. coord.
        k(    1) = (   0.0000000   0.0000000   0.0000000), wk =   0.0017361
        k(    2) = (   0.0000000   0.0000000   0.1250000), wk =   0.0034722
        k(    3) = (   0.0000000   0.0000000   0.2500000), wk =   0.0034722
        k(    4) = (   0.0000000  -0.0000000   0.3750000), wk =   0.0034722
        k(    5) = (   0.0000000   0.0000000  -0.5000000), wk =   0.0017361
        k(    6) = (   0.0000000   0.0833333   0.0000000), wk =   0.0034722
        k(    7) = (   0.0000000   0.0833333   0.1250000), wk =   0.0034722
        k(    8) = (   0.0000000   0.0833333   0.2500000), wk =   0.0034722
        k(    9) = (   0.0000000   0.0833333   0.3750000), wk =   0.0034722
        k(   10) = (   0.0000000   0.0833333  -0.5000000), wk =   0.0034722
        k(   11) = (   0.0000000   0.0833333  -0.3750000), wk =   0.0034722
        k(   12) = (   0.0000000   0.0833333  -0.2500000), wk =   0.0034722
        k(   13) = (   0.0000000   0.0833333  -0.1250000), wk =   0.0034722
        k(   14) = (   0.0000000   0.1666667   0.0000000), wk =   0.0034722
        k(   15) = (   0.0000000   0.1666667   0.1250000), wk =   0.0034722
        k(   16) = (   0.0000000   0.1666667   0.2500000), wk =   0.0034722
        k(   17) = (   0.0000000   0.1666667   0.3750000), wk =   0.0034722
        k(   18) = (   0.0000000   0.1666667  -0.5000000), wk =   0.0034722
        k(   19) = (   0.0000000   0.1666667  -0.3750000), wk =   0.0034722
        k(   20) = (   0.0000000   0.1666667  -0.2500000), wk =   0.0034722
        k(   21) = (   0.0000000   0.1666667  -0.1250000), wk =   0.0034722
        k(   22) = (   0.0000000   0.2500000   0.0000000), wk =   0.0034722
        k(   23) = (   0.0000000   0.2500000   0.1250000), wk =   0.0034722
        k(   24) = (   0.0000000   0.2500000   0.2500000), wk =   0.0034722
        k(   25) = (   0.0000000   0.2500000   0.3750000), wk =   0.0034722
        k(   26) = (   0.0000000   0.2500000  -0.5000000), wk =   0.0034722
        k(   27) = (   0.0000000   0.2500000  -0.3750000), wk =   0.0034722
        k(   28) = (   0.0000000   0.2500000  -0.2500000), wk =   0.0034722
        k(   29) = (   0.0000000   0.2500000  -0.1250000), wk =   0.0034722
        k(   30) = (   0.0000000   0.3333333   0.0000000), wk =   0.0034722
        k(   31) = (   0.0000000   0.3333333   0.1250000), wk =   0.0034722
        k(   32) = (   0.0000000   0.3333333   0.2500000), wk =   0.0034722
        k(   33) = (   0.0000000   0.3333333   0.3750000), wk =   0.0034722
        k(   34) = (   0.0000000   0.3333333  -0.5000000), wk =   0.0034722
        k(   35) = (   0.0000000   0.3333333  -0.3750000), wk =   0.0034722
        k(   36) = (   0.0000000   0.3333333  -0.2500000), wk =   0.0034722
        k(   37) = (   0.0000000   0.3333333  -0.1250000), wk =   0.0034722
        k(   38) = (   0.0000000   0.4166667   0.0000000), wk =   0.0034722
        k(   39) = (   0.0000000   0.4166667   0.1250000), wk =   0.0034722
        k(   40) = (   0.0000000   0.4166667   0.2500000), wk =   0.0034722
        k(   41) = (   0.0000000   0.4166667   0.3750000), wk =   0.0034722
        k(   42) = (   0.0000000   0.4166667  -0.5000000), wk =   0.0034722
        k(   43) = (   0.0000000   0.4166667  -0.3750000), wk =   0.0034722
        k(   44) = (   0.0000000   0.4166667  -0.2500000), wk =   0.0034722
        k(   45) = (   0.0000000   0.4166667  -0.1250000), wk =   0.0034722
        k(   46) = (   0.0000000  -0.5000000   0.0000000), wk =   0.0017361
        k(   47) = (   0.0000000  -0.5000000   0.1250000), wk =   0.0034722
        k(   48) = (   0.0000000  -0.5000000   0.2500000), wk =   0.0034722
        k(   49) = (   0.0000000  -0.5000000   0.3750000), wk =   0.0034722
        k(   50) = (   0.0000000  -0.5000000  -0.5000000), wk =   0.0017361
        k(   51) = (   0.0833333   0.0000000   0.0000000), wk =   0.0069444
        k(   52) = (   0.0833333   0.0000000   0.1250000), wk =   0.0069444
        k(   53) = (   0.0833333   0.0000000   0.2500000), wk =   0.0069444
        k(   54) = (   0.0833333   0.0000000   0.3750000), wk =   0.0069444
        k(   55) = (   0.0833333   0.0000000  -0.5000000), wk =   0.0069444
        k(   56) = (   0.0833333   0.0000000  -0.3750000), wk =   0.0069444
        k(   57) = (   0.0833333   0.0000000  -0.2500000), wk =   0.0069444
        k(   58) = (   0.0833333   0.0000000  -0.1250000), wk =   0.0069444
        k(   59) = (   0.0833333   0.0833333   0.0000000), wk =   0.0069444
        k(   60) = (   0.0833333   0.0833333   0.1250000), wk =   0.0069444
        k(   61) = (   0.0833333   0.0833333   0.2500000), wk =   0.0069444
        k(   62) = (   0.0833333   0.0833333   0.3750000), wk =   0.0069444
        k(   63) = (   0.0833333   0.0833333  -0.5000000), wk =   0.0069444
        k(   64) = (   0.0833333   0.0833333  -0.3750000), wk =   0.0069444
        k(   65) = (   0.0833333   0.0833333  -0.2500000), wk =   0.0069444
        k(   66) = (   0.0833333   0.0833333  -0.1250000), wk =   0.0069444
        k(   67) = (   0.0833333   0.1666667   0.0000000), wk =   0.0069444
        k(   68) = (   0.0833333   0.1666667   0.1250000), wk =   0.0069444
        k(   69) = (   0.0833333   0.1666667   0.2500000), wk =   0.0069444
        k(   70) = (   0.0833333   0.1666667   0.3750000), wk =   0.0069444
        k(   71) = (   0.0833333   0.1666667  -0.5000000), wk =   0.0069444
        k(   72) = (   0.0833333   0.1666667  -0.3750000), wk =   0.0069444
        k(   73) = (   0.0833333   0.1666667  -0.2500000), wk =   0.0069444
        k(   74) = (   0.0833333   0.1666667  -0.1250000), wk =   0.0069444
        k(   75) = (   0.0833333   0.2500000   0.0000000), wk =   0.0069444
        k(   76) = (   0.0833333   0.2500000   0.1250000), wk =   0.0069444
        k(   77) = (   0.0833333   0.2500000   0.2500000), wk =   0.0069444
        k(   78) = (   0.0833333   0.2500000   0.3750000), wk =   0.0069444
        k(   79) = (   0.0833333   0.2500000  -0.5000000), wk =   0.0069444
        k(   80) = (   0.0833333   0.2500000  -0.3750000), wk =   0.0069444
        k(   81) = (   0.0833333   0.2500000  -0.2500000), wk =   0.0069444
        k(   82) = (   0.0833333   0.2500000  -0.1250000), wk =   0.0069444
        k(   83) = (   0.0833333   0.3333333   0.0000000), wk =   0.0069444
        k(   84) = (   0.0833333   0.3333333   0.1250000), wk =   0.0069444
        k(   85) = (   0.0833333   0.3333333   0.2500000), wk =   0.0069444
        k(   86) = (   0.0833333   0.3333333   0.3750000), wk =   0.0069444
        k(   87) = (   0.0833333   0.3333333  -0.5000000), wk =   0.0069444
        k(   88) = (   0.0833333   0.3333333  -0.3750000), wk =   0.0069444
        k(   89) = (   0.0833333   0.3333333  -0.2500000), wk =   0.0069444
        k(   90) = (   0.0833333   0.3333333  -0.1250000), wk =   0.0069444
        k(   91) = (   0.0833333   0.4166667   0.0000000), wk =   0.0069444
        k(   92) = (   0.0833333   0.4166667   0.1250000), wk =   0.0069444
        k(   93) = (   0.0833333   0.4166667   0.2500000), wk =   0.0069444
        k(   94) = (   0.0833333   0.4166667   0.3750000), wk =   0.0069444
        k(   95) = (   0.0833333   0.4166667  -0.5000000), wk =   0.0069444
        k(   96) = (   0.0833333   0.4166667  -0.3750000), wk =   0.0069444
        k(   97) = (   0.0833333   0.4166667  -0.2500000), wk =   0.0069444
        k(   98) = (   0.0833333   0.4166667  -0.1250000), wk =   0.0069444
        k(   99) = (   0.1666667   0.0000000   0.0000000), wk =   0.0069444
        k(  100) = (   0.1666667   0.0000000   0.1250000), wk =   0.0069444
        k(  101) = (   0.1666667   0.0000000   0.2500000), wk =   0.0069444
        k(  102) = (   0.1666667   0.0000000   0.3750000), wk =   0.0069444
        k(  103) = (   0.1666667   0.0000000  -0.5000000), wk =   0.0069444
        k(  104) = (   0.1666667   0.0000000  -0.3750000), wk =   0.0069444
        k(  105) = (   0.1666667   0.0000000  -0.2500000), wk =   0.0069444
        k(  106) = (   0.1666667   0.0000000  -0.1250000), wk =   0.0069444
        k(  107) = (   0.1666667   0.0833333   0.0000000), wk =   0.0069444
        k(  108) = (   0.1666667   0.0833333   0.1250000), wk =   0.0069444
        k(  109) = (   0.1666667   0.0833333   0.2500000), wk =   0.0069444
        k(  110) = (   0.1666667   0.0833333   0.3750000), wk =   0.0069444
        k(  111) = (   0.1666667   0.0833333  -0.5000000), wk =   0.0069444
        k(  112) = (   0.1666667   0.0833333  -0.3750000), wk =   0.0069444
        k(  113) = (   0.1666667   0.0833333  -0.2500000), wk =   0.0069444
        k(  114) = (   0.1666667   0.0833333  -0.1250000), wk =   0.0069444
        k(  115) = (   0.1666667   0.1666667   0.0000000), wk =   0.0069444
        k(  116) = (   0.1666667   0.1666667   0.1250000), wk =   0.0069444
        k(  117) = (   0.1666667   0.1666667   0.2500000), wk =   0.0069444
        k(  118) = (   0.1666667   0.1666667   0.3750000), wk =   0.0069444
        k(  119) = (   0.1666667   0.1666667  -0.5000000), wk =   0.0069444
        k(  120) = (   0.1666667   0.1666667  -0.3750000), wk =   0.0069444
        k(  121) = (   0.1666667   0.1666667  -0.2500000), wk =   0.0069444
        k(  122) = (   0.1666667   0.1666667  -0.1250000), wk =   0.0069444
        k(  123) = (   0.1666667   0.2500000   0.0000000), wk =   0.0069444
        k(  124) = (   0.1666667   0.2500000   0.1250000), wk =   0.0069444
        k(  125) = (   0.1666667   0.2500000   0.2500000), wk =   0.0069444
        k(  126) = (   0.1666667   0.2500000   0.3750000), wk =   0.0069444
        k(  127) = (   0.1666667   0.2500000  -0.5000000), wk =   0.0069444
        k(  128) = (   0.1666667   0.2500000  -0.3750000), wk =   0.0069444
        k(  129) = (   0.1666667   0.2500000  -0.2500000), wk =   0.0069444
        k(  130) = (   0.1666667   0.2500000  -0.1250000), wk =   0.0069444
        k(  131) = (   0.1666667   0.3333333   0.0000000), wk =   0.0069444
        k(  132) = (   0.1666667   0.3333333   0.1250000), wk =   0.0069444
        k(  133) = (   0.1666667   0.3333333   0.2500000), wk =   0.0069444
        k(  134) = (   0.1666667   0.3333333   0.3750000), wk =   0.0069444
        k(  135) = (   0.1666667   0.3333333  -0.5000000), wk =   0.0069444
        k(  136) = (   0.1666667   0.3333333  -0.3750000), wk =   0.0069444
        k(  137) = (   0.1666667   0.3333333  -0.2500000), wk =   0.0069444
        k(  138) = (   0.1666667   0.3333333  -0.1250000), wk =   0.0069444
        k(  139) = (   0.1666667   0.4166667   0.0000000), wk =   0.0034722
        k(  140) = (   0.1666667   0.4166667   0.1250000), wk =   0.0069444
        k(  141) = (   0.1666667   0.4166667   0.2500000), wk =   0.0069444
        k(  142) = (   0.1666667   0.4166667   0.3750000), wk =   0.0069444
        k(  143) = (   0.1666667   0.4166667  -0.5000000), wk =   0.0034722
        k(  144) = (   0.1666667  -0.0833333   0.0000000), wk =   0.0034722
        k(  145) = (   0.1666667  -0.0833333   0.1250000), wk =   0.0069444
        k(  146) = (   0.1666667  -0.0833333   0.2500000), wk =   0.0069444
        k(  147) = (   0.1666667  -0.0833333   0.3750000), wk =   0.0069444
        k(  148) = (   0.1666667  -0.0833333  -0.5000000), wk =   0.0034722
        k(  149) = (   0.2500000   0.0000000   0.0000000), wk =   0.0069444
        k(  150) = (   0.2500000   0.0000000   0.1250000), wk =   0.0069444
        k(  151) = (   0.2500000   0.0000000   0.2500000), wk =   0.0069444
        k(  152) = (   0.2500000   0.0000000   0.3750000), wk =   0.0069444
        k(  153) = (   0.2500000   0.0000000  -0.5000000), wk =   0.0069444
        k(  154) = (   0.2500000   0.0000000  -0.3750000), wk =   0.0069444
        k(  155) = (   0.2500000   0.0000000  -0.2500000), wk =   0.0069444
        k(  156) = (   0.2500000   0.0000000  -0.1250000), wk =   0.0069444
        k(  157) = (   0.2500000   0.0833333   0.0000000), wk =   0.0069444
        k(  158) = (   0.2500000   0.0833333   0.1250000), wk =   0.0069444
        k(  159) = (   0.2500000   0.0833333   0.2500000), wk =   0.0069444
        k(  160) = (   0.2500000   0.0833333   0.3750000), wk =   0.0069444
        k(  161) = (   0.2500000   0.0833333  -0.5000000), wk =   0.0069444
        k(  162) = (   0.2500000   0.0833333  -0.3750000), wk =   0.0069444
        k(  163) = (   0.2500000   0.0833333  -0.2500000), wk =   0.0069444
        k(  164) = (   0.2500000   0.0833333  -0.1250000), wk =   0.0069444
        k(  165) = (   0.2500000   0.1666667   0.0000000), wk =   0.0069444
        k(  166) = (   0.2500000   0.1666667   0.1250000), wk =   0.0069444
        k(  167) = (   0.2500000   0.1666667   0.2500000), wk =   0.0069444
        k(  168) = (   0.2500000   0.1666667   0.3750000), wk =   0.0069444
        k(  169) = (   0.2500000   0.1666667  -0.5000000), wk =   0.0069444
        k(  170) = (   0.2500000   0.1666667  -0.3750000), wk =   0.0069444
        k(  171) = (   0.2500000   0.1666667  -0.2500000), wk =   0.0069444
        k(  172) = (   0.2500000   0.1666667  -0.1250000), wk =   0.0069444
        k(  173) = (   0.2500000   0.2500000   0.0000000), wk =   0.0069444
        k(  174) = (   0.2500000   0.2500000   0.1250000), wk =   0.0069444
        k(  175) = (   0.2500000   0.2500000   0.2500000), wk =   0.0069444
        k(  176) = (   0.2500000   0.2500000   0.3750000), wk =   0.0069444
        k(  177) = (   0.2500000   0.2500000  -0.5000000), wk =   0.0069444
        k(  178) = (   0.2500000   0.2500000  -0.3750000), wk =   0.0069444
        k(  179) = (   0.2500000   0.2500000  -0.2500000), wk =   0.0069444
        k(  180) = (   0.2500000   0.2500000  -0.1250000), wk =   0.0069444
        k(  181) = (   0.2500000   0.3333333   0.0000000), wk =   0.0069444
        k(  182) = (   0.2500000   0.3333333   0.1250000), wk =   0.0069444
        k(  183) = (   0.2500000   0.3333333   0.2500000), wk =   0.0069444
        k(  184) = (   0.2500000   0.3333333   0.3750000), wk =   0.0069444
        k(  185) = (   0.2500000   0.3333333  -0.5000000), wk =   0.0069444
        k(  186) = (   0.2500000   0.3333333  -0.3750000), wk =   0.0069444
        k(  187) = (   0.2500000   0.3333333  -0.2500000), wk =   0.0069444
        k(  188) = (   0.2500000   0.3333333  -0.1250000), wk =   0.0069444
        k(  189) = (   0.2500000  -0.1666667   0.0000000), wk =   0.0069444
        k(  190) = (   0.2500000  -0.1666667   0.1250000), wk =   0.0069444
        k(  191) = (   0.2500000  -0.1666667   0.2500000), wk =   0.0069444
        k(  192) = (   0.2500000  -0.1666667   0.3750000), wk =   0.0069444
        k(  193) = (   0.2500000  -0.1666667  -0.5000000), wk =   0.0069444
        k(  194) = (   0.2500000  -0.1666667  -0.3750000), wk =   0.0069444
        k(  195) = (   0.2500000  -0.1666667  -0.2500000), wk =   0.0069444
        k(  196) = (   0.2500000  -0.1666667  -0.1250000), wk =   0.0069444
        k(  197) = (   0.3333333   0.0000000   0.0000000), wk =   0.0069444
        k(  198) = (   0.3333333   0.0000000   0.1250000), wk =   0.0069444
        k(  199) = (   0.3333333   0.0000000   0.2500000), wk =   0.0069444
        k(  200) = (   0.3333333   0.0000000   0.3750000), wk =   0.0069444
        k(  201) = (   0.3333333   0.0000000  -0.5000000), wk =   0.0069444
        k(  202) = (   0.3333333   0.0000000  -0.3750000), wk =   0.0069444
        k(  203) = (   0.3333333   0.0000000  -0.2500000), wk =   0.0069444
        k(  204) = (   0.3333333   0.0000000  -0.1250000), wk =   0.0069444
        k(  205) = (   0.3333333   0.0833333   0.0000000), wk =   0.0069444
        k(  206) = (   0.3333333   0.0833333   0.1250000), wk =   0.0069444
        k(  207) = (   0.3333333   0.0833333   0.2500000), wk =   0.0069444
        k(  208) = (   0.3333333   0.0833333   0.3750000), wk =   0.0069444
        k(  209) = (   0.3333333   0.0833333  -0.5000000), wk =   0.0069444
        k(  210) = (   0.3333333   0.0833333  -0.3750000), wk =   0.0069444
        k(  211) = (   0.3333333   0.0833333  -0.2500000), wk =   0.0069444
        k(  212) = (   0.3333333   0.0833333  -0.1250000), wk =   0.0069444
        k(  213) = (   0.3333333   0.1666667   0.0000000), wk =   0.0069444
        k(  214) = (   0.3333333   0.1666667   0.1250000), wk =   0.0069444
        k(  215) = (   0.3333333   0.1666667   0.2500000), wk =   0.0069444
        k(  216) = (   0.3333333   0.1666667   0.3750000), wk =   0.0069444
        k(  217) = (   0.3333333   0.1666667  -0.5000000), wk =   0.0069444
        k(  218) = (   0.3333333   0.1666667  -0.3750000), wk =   0.0069444
        k(  219) = (   0.3333333   0.1666667  -0.2500000), wk =   0.0069444
        k(  220) = (   0.3333333   0.1666667  -0.1250000), wk =   0.0069444
        k(  221) = (   0.3333333   0.2500000   0.0000000), wk =   0.0069444
        k(  222) = (   0.3333333   0.2500000   0.1250000), wk =   0.0069444
        k(  223) = (   0.3333333   0.2500000   0.2500000), wk =   0.0069444
        k(  224) = (   0.3333333   0.2500000   0.3750000), wk =   0.0069444
        k(  225) = (   0.3333333   0.2500000  -0.5000000), wk =   0.0069444
        k(  226) = (   0.3333333   0.2500000  -0.3750000), wk =   0.0069444
        k(  227) = (   0.3333333   0.2500000  -0.2500000), wk =   0.0069444
        k(  228) = (   0.3333333   0.2500000  -0.1250000), wk =   0.0069444
        k(  229) = (   0.3333333   0.3333333   0.0000000), wk =   0.0034722
        k(  230) = (   0.3333333   0.3333333   0.1250000), wk =   0.0069444
        k(  231) = (   0.3333333   0.3333333   0.2500000), wk =   0.0069444
        k(  232) = (   0.3333333   0.3333333   0.3750000), wk =   0.0069444
        k(  233) = (   0.3333333   0.3333333  -0.5000000), wk =   0.0034722
        k(  234) = (   0.3333333  -0.2500000  -0.0000000), wk =   0.0069444
        k(  235) = (   0.3333333  -0.2500000   0.1250000), wk =   0.0069444
        k(  236) = (   0.3333333  -0.2500000   0.2500000), wk =   0.0069444
        k(  237) = (   0.3333333  -0.2500000   0.3750000), wk =   0.0069444
        k(  238) = (   0.3333333  -0.2500000  -0.5000000), wk =   0.0069444
        k(  239) = (   0.3333333  -0.2500000  -0.3750000), wk =   0.0069444
        k(  240) = (   0.3333333  -0.2500000  -0.2500000), wk =   0.0069444
        k(  241) = (   0.3333333  -0.2500000  -0.1250000), wk =   0.0069444
        k(  242) = (   0.3333333  -0.1666667   0.0000000), wk =   0.0034722
        k(  243) = (   0.3333333  -0.1666667   0.1250000), wk =   0.0069444
        k(  244) = (   0.3333333  -0.1666667   0.2500000), wk =   0.0069444
        k(  245) = (   0.3333333  -0.1666667   0.3750000), wk =   0.0069444
        k(  246) = (   0.3333333  -0.1666667  -0.5000000), wk =   0.0034722
        k(  247) = (   0.4166667   0.0000000   0.0000000), wk =   0.0069444
        k(  248) = (   0.4166667   0.0000000   0.1250000), wk =   0.0069444
        k(  249) = (   0.4166667   0.0000000   0.2500000), wk =   0.0069444
        k(  250) = (   0.4166667   0.0000000   0.3750000), wk =   0.0069444
        k(  251) = (   0.4166667   0.0000000  -0.5000000), wk =   0.0069444
        k(  252) = (   0.4166667   0.0000000  -0.3750000), wk =   0.0069444
        k(  253) = (   0.4166667   0.0000000  -0.2500000), wk =   0.0069444
        k(  254) = (   0.4166667   0.0000000  -0.1250000), wk =   0.0069444
        k(  255) = (   0.4166667   0.0833333   0.0000000), wk =   0.0069444
        k(  256) = (   0.4166667   0.0833333   0.1250000), wk =   0.0069444
        k(  257) = (   0.4166667   0.0833333   0.2500000), wk =   0.0069444
        k(  258) = (   0.4166667   0.0833333   0.3750000), wk =   0.0069444
        k(  259) = (   0.4166667   0.0833333  -0.5000000), wk =   0.0069444
        k(  260) = (   0.4166667   0.0833333  -0.3750000), wk =   0.0069444
        k(  261) = (   0.4166667   0.0833333  -0.2500000), wk =   0.0069444
        k(  262) = (   0.4166667   0.0833333  -0.1250000), wk =   0.0069444
        k(  263) = (   0.4166667   0.1666667   0.0000000), wk =   0.0069444
        k(  264) = (   0.4166667   0.1666667   0.1250000), wk =   0.0069444
        k(  265) = (   0.4166667   0.1666667   0.2500000), wk =   0.0069444
        k(  266) = (   0.4166667   0.1666667   0.3750000), wk =   0.0069444
        k(  267) = (   0.4166667   0.1666667  -0.5000000), wk =   0.0069444
        k(  268) = (   0.4166667   0.1666667  -0.3750000), wk =   0.0069444
        k(  269) = (   0.4166667   0.1666667  -0.2500000), wk =   0.0069444
        k(  270) = (   0.4166667   0.1666667  -0.1250000), wk =   0.0069444
        k(  271) = (   0.4166667   0.2500000   0.0000000), wk =   0.0069444
        k(  272) = (   0.4166667   0.2500000   0.1250000), wk =   0.0069444
        k(  273) = (   0.4166667   0.2500000   0.2500000), wk =   0.0069444
        k(  274) = (   0.4166667   0.2500000   0.3750000), wk =   0.0069444
        k(  275) = (   0.4166667   0.2500000  -0.5000000), wk =   0.0069444
        k(  276) = (   0.4166667   0.2500000  -0.3750000), wk =   0.0069444
        k(  277) = (   0.4166667   0.2500000  -0.2500000), wk =   0.0069444
        k(  278) = (   0.4166667   0.2500000  -0.1250000), wk =   0.0069444
        k(  279) = (   0.4166667  -0.3333333   0.0000000), wk =   0.0069444
        k(  280) = (   0.4166667  -0.3333333   0.1250000), wk =   0.0069444
        k(  281) = (   0.4166667  -0.3333333   0.2500000), wk =   0.0069444
        k(  282) = (   0.4166667  -0.3333333   0.3750000), wk =   0.0069444
        k(  283) = (   0.4166667  -0.3333333  -0.5000000), wk =   0.0069444
        k(  284) = (   0.4166667  -0.3333333  -0.3750000), wk =   0.0069444
        k(  285) = (   0.4166667  -0.3333333  -0.2500000), wk =   0.0069444
        k(  286) = (   0.4166667  -0.3333333  -0.1250000), wk =   0.0069444
        k(  287) = (   0.4166667  -0.2500000  -0.0000000), wk =   0.0069444
        k(  288) = (   0.4166667  -0.2500000   0.1250000), wk =   0.0069444
        k(  289) = (   0.4166667  -0.2500000   0.2500000), wk =   0.0069444
        k(  290) = (   0.4166667  -0.2500000   0.3750000), wk =   0.0069444
        k(  291) = (   0.4166667  -0.2500000  -0.5000000), wk =   0.0069444
        k(  292) = (   0.4166667  -0.2500000  -0.3750000), wk =   0.0069444
        k(  293) = (   0.4166667  -0.2500000  -0.2500000), wk =   0.0069444
        k(  294) = (   0.4166667  -0.2500000  -0.1250000), wk =   0.0069444
        k(  295) = (  -0.5000000  -0.0000000   0.0000000), wk =   0.0034722
        k(  296) = (  -0.5000000  -0.0000000   0.1250000), wk =   0.0069444
        k(  297) = (  -0.5000000  -0.0000000   0.2500000), wk =   0.0069444
        k(  298) = (  -0.5000000  -0.0000000   0.3750000), wk =   0.0069444
        k(  299) = (  -0.5000000  -0.0000000  -0.5000000), wk =   0.0034722
        k(  300) = (  -0.5000000   0.0833333  -0.0000000), wk =   0.0069444
        k(  301) = (  -0.5000000   0.0833333   0.1250000), wk =   0.0069444
        k(  302) = (  -0.5000000   0.0833333   0.2500000), wk =   0.0069444
        k(  303) = (  -0.5000000   0.0833333   0.3750000), wk =   0.0069444
        k(  304) = (  -0.5000000   0.0833333  -0.5000000), wk =   0.0069444
        k(  305) = (  -0.5000000   0.0833333  -0.3750000), wk =   0.0069444
        k(  306) = (  -0.5000000   0.0833333  -0.2500000), wk =   0.0069444
        k(  307) = (  -0.5000000   0.0833333  -0.1250000), wk =   0.0069444
        k(  308) = (  -0.5000000   0.1666667  -0.0000000), wk =   0.0069444
        k(  309) = (  -0.5000000   0.1666667   0.1250000), wk =   0.0069444
        k(  310) = (  -0.5000000   0.1666667   0.2500000), wk =   0.0069444
        k(  311) = (  -0.5000000   0.1666667   0.3750000), wk =   0.0069444
        k(  312) = (  -0.5000000   0.1666667  -0.5000000), wk =   0.0069444
        k(  313) = (  -0.5000000   0.1666667  -0.3750000), wk =   0.0069444
        k(  314) = (  -0.5000000   0.1666667  -0.2500000), wk =   0.0069444
        k(  315) = (  -0.5000000   0.1666667  -0.1250000), wk =   0.0069444
        k(  316) = (  -0.5000000   0.2500000   0.0000000), wk =   0.0034722
        k(  317) = (  -0.5000000   0.2500000   0.1250000), wk =   0.0069444
        k(  318) = (  -0.5000000   0.2500000   0.2500000), wk =   0.0069444
        k(  319) = (  -0.5000000   0.2500000   0.3750000), wk =   0.0069444
        k(  320) = (  -0.5000000   0.2500000  -0.5000000), wk =   0.0034722

     Dense  grid:    43249 G-vectors     FFT dimensions: (  40,  40,  64)

     Smooth grid:    15281 G-vectors     FFT dimensions: (  27,  27,  45)

     Dynamical RAM for                 wfc:       0.90 MB

     Dynamical RAM for     wfc (w. buffer):     289.86 MB

     Dynamical RAM for           str. fact:       1.32 MB

     Dynamical RAM for           local pot:       0.00 MB

     Dynamical RAM for          nlocal pot:       1.51 MB

     Dynamical RAM for                qrad:       3.21 MB

     Dynamical RAM for          rho,v,vnew:       4.32 MB

     Dynamical RAM for               rhoin:       1.44 MB

     Dynamical RAM for            rho*nmix:      10.56 MB

     Dynamical RAM for           G-vectors:       2.59 MB

     Dynamical RAM for          h,s,v(r/c):       0.18 MB

     Dynamical RAM for          <psi|beta>:       0.02 MB

     Dynamical RAM for                 psi:       1.81 MB

     Dynamical RAM for                hpsi:       1.81 MB

     Dynamical RAM for                spsi:       1.81 MB

     Dynamical RAM for      wfcinit/wfcrot:       2.01 MB

     Dynamical RAM for           addusdens:     124.07 MB

     Dynamical RAM for          addusforce:     125.72 MB

     Dynamical RAM for         addusstress:     132.65 MB

     Estimated static dynamical RAM per process >     310.15 MB

     Estimated max dynamical RAM per process >     453.35 MB

     Check: negative core charge=   -0.000003

     Initial potential from superposition of free atoms

     starting charge      51.9997, renormalised to      52.0000
     Starting wfcs are   34 randomized atomic wfcs
     Checking if some PAW data can be deallocated... 

     total cpu time spent up to now is       29.3 secs

     Self-consistent Calculation

     iteration #  1     ecut=    50.00 Ry     beta= 0.40
     Davidson diagonalization with overlap

---- Real-time Memory Report at c_bands before calling an iterative solver
           352 MiB given to the printing process from OS
             0 MiB allocation reported by mallinfo(arena+hblkhd)
          4899 MiB available memory on the node where the printing process lives
------------------
     ethr =  1.00E-02,  avg # of iterations =  2.9

     total cpu time spent up to now is       97.5 secs

     total energy              =   -1006.32221172 Ry
     estimated scf accuracy    <       0.85233147 Ry

     iteration #  2     ecut=    50.00 Ry     beta= 0.40
     Davidson diagonalization with overlap

---- Real-time Memory Report at c_bands before calling an iterative solver
           502 MiB given to the printing process from OS
             0 MiB allocation reported by mallinfo(arena+hblkhd)
          4814 MiB available memory on the node where the printing process lives
------------------
     ethr =  1.64E-03,  avg # of iterations =  2.0

     total cpu time spent up to now is      152.9 secs

     WARNING: integrated charge=    52.00026662, expected=    52.00000000

     total energy              =   -1006.55359832 Ry
     estimated scf accuracy    <       0.10172043 Ry

     iteration #  3     ecut=    50.00 Ry     beta= 0.40
     Davidson diagonalization with overlap

---- Real-time Memory Report at c_bands before calling an iterative solver
           502 MiB given to the printing process from OS
             0 MiB allocation reported by mallinfo(arena+hblkhd)
          4814 MiB available memory on the node where the printing process lives
------------------
     ethr =  1.96E-04,  avg # of iterations =  2.3

     total cpu time spent up to now is      204.5 secs

     WARNING: integrated charge=    52.00018556, expected=    52.00000000

     total energy              =   -1006.56778868 Ry
     estimated scf accuracy    <       0.00918254 Ry

     iteration #  4     ecut=    50.00 Ry     beta= 0.40
     Davidson diagonalization with overlap

---- Real-time Memory Report at c_bands before calling an iterative solver
           503 MiB given to the printing process from OS
             0 MiB allocation reported by mallinfo(arena+hblkhd)
          4939 MiB available memory on the node where the printing process lives
------------------
     ethr =  1.77E-05,  avg # of iterations =  4.2

     total cpu time spent up to now is      257.5 secs

     WARNING: integrated charge=    52.00009673, expected=    52.00000000

     total energy              =   -1006.56806049 Ry
     estimated scf accuracy    <       0.00171860 Ry

     iteration #  5     ecut=    50.00 Ry     beta= 0.40
     Davidson diagonalization with overlap

---- Real-time Memory Report at c_bands before calling an iterative solver
           503 MiB given to the printing process from OS
             0 MiB allocation reported by mallinfo(arena+hblkhd)
          4940 MiB available memory on the node where the printing process lives
------------------
     ethr =  3.31E-06,  avg # of iterations =  2.5

     total cpu time spent up to now is      308.0 secs

     WARNING: integrated charge=    52.00008569, expected=    52.00000000

     total energy              =   -1006.56814884 Ry
     estimated scf accuracy    <       0.00004144 Ry

     iteration #  6     ecut=    50.00 Ry     beta= 0.40
     Davidson diagonalization with overlap

---- Real-time Memory Report at c_bands before calling an iterative solver
           508 MiB given to the printing process from OS
             0 MiB allocation reported by mallinfo(arena+hblkhd)
          4935 MiB available memory on the node where the printing process lives
------------------
     ethr =  7.97E-08,  avg # of iterations =  3.0

     total cpu time spent up to now is      374.1 secs

     WARNING: integrated charge=    52.00007803, expected=    52.00000000

     total energy              =   -1006.56816664 Ry
     estimated scf accuracy    <       0.00004884 Ry

     iteration #  7     ecut=    50.00 Ry     beta= 0.40
     Davidson diagonalization with overlap

---- Real-time Memory Report at c_bands before calling an iterative solver
           509 MiB given to the printing process from OS
             0 MiB allocation reported by mallinfo(arena+hblkhd)
          4934 MiB available memory on the node where the printing process lives
------------------
     ethr =  7.97E-08,  avg # of iterations =  2.0

     total cpu time spent up to now is      430.6 secs

     WARNING: integrated charge=    52.00007299, expected=    52.00000000

     total energy              =   -1006.56816766 Ry
     estimated scf accuracy    <       0.00000797 Ry

     iteration #  8     ecut=    50.00 Ry     beta= 0.40
     Davidson diagonalization with overlap

---- Real-time Memory Report at c_bands before calling an iterative solver
           509 MiB given to the printing process from OS
             0 MiB allocation reported by mallinfo(arena+hblkhd)
          4932 MiB available memory on the node where the printing process lives
------------------
     ethr =  1.53E-08,  avg # of iterations =  2.7

     total cpu time spent up to now is      502.0 secs

     WARNING: integrated charge=    52.00007371, expected=    52.00000000

     total energy              =   -1006.56817193 Ry
     estimated scf accuracy    <       0.00000279 Ry

     iteration #  9     ecut=    50.00 Ry     beta= 0.40
     Davidson diagonalization with overlap

---- Real-time Memory Report at c_bands before calling an iterative solver
           510 MiB given to the printing process from OS
             0 MiB allocation reported by mallinfo(arena+hblkhd)
          4932 MiB available memory on the node where the printing process lives
------------------
     ethr =  5.37E-09,  avg # of iterations =  2.0

     total cpu time spent up to now is      556.6 secs

     WARNING: integrated charge=    52.00007348, expected=    52.00000000

     total energy              =   -1006.56817157 Ry
     estimated scf accuracy    <       0.00000002 Ry

     iteration # 10     ecut=    50.00 Ry     beta= 0.40
     Davidson diagonalization with overlap

---- Real-time Memory Report at c_bands before calling an iterative solver
           510 MiB given to the printing process from OS
             0 MiB allocation reported by mallinfo(arena+hblkhd)
          4931 MiB available memory on the node where the printing process lives
------------------
     ethr =  4.52E-11,  avg # of iterations =  2.6

     total cpu time spent up to now is      616.4 secs

     WARNING: integrated charge=    52.00007335, expected=    52.00000000

     total energy              =   -1006.56817173 Ry
     estimated scf accuracy    <       0.00000002 Ry

     iteration # 11     ecut=    50.00 Ry     beta= 0.40
     Davidson diagonalization with overlap

---- Real-time Memory Report at c_bands before calling an iterative solver
           510 MiB given to the printing process from OS
             0 MiB allocation reported by mallinfo(arena+hblkhd)
          4931 MiB available memory on the node where the printing process lives
------------------
     ethr =  3.89E-11,  avg # of iterations =  2.0

     total cpu time spent up to now is      670.7 secs

     End of self-consistent calculation

          k = 0.0000 0.0000 0.0000 (  1877 PWs)   bands (ev):

  -114.5436-114.5434 -68.7454 -68.7427 -68.7410 -68.7390 -68.7360 -68.7351
    -9.2204  -8.4864   3.1597   3.1603   3.2079   3.2318   3.3563   3.3563
     4.3471   4.3471   4.5587   4.5589   4.8372   8.0992   8.0998   8.7990
     8.8979   8.9059   9.6974  14.1562  17.1107  21.8522  21.8538

     occupation numbers 
     1.0000   1.0000   1.0000   1.0000   1.0000   1.0000   1.0000   1.0000
     1.0000   1.0000   1.0000   1.0000   1.0000   1.0000   1.0000   1.0000
     1.0000   1.0000   1.0000   1.0000   1.0000   1.0000   1.0000   1.0002
     1.0019   1.0023   0.0241   0.0000   0.0000   0.0000   0.0000

          k = 0.0000-0.0008 0.0775 (  1893 PWs)   bands (ev):

  -114.5436-114.5434 -68.7454 -68.7429 -68.7410 -68.7390 -68.7360 -68.7351
    -9.1940  -8.5159   3.1591   3.1605   3.1641   3.1826   3.3450   3.3455
     4.3581   4.3581   4.5542   4.5542   5.0192   8.1301   8.1308   8.4392
     8.8683   8.8693  10.1143  14.0171  17.2340  21.8501  21.8519

     occupation numbers 
     1.0000   1.0000   1.0000   1.0000   1.0000   1.0000   1.0000   1.0000
     1.0000   1.0000   1.0000   1.0000   1.0000   1.0000   1.0000   1.0000
     1.0000   1.0000   1.0000   1.0000   1.0000   1.0000   1.0000   1.0000
     1.0010   1.0010   0.0000   0.0000   0.0000   0.0000   0.0000

          k = 0.0000-0.0015 0.1550 (  1889 PWs)   bands (ev):

  -114.5436-114.5434 -68.7452 -68.7432 -68.7409 -68.7390 -68.7360 -68.7351
    -9.1181  -8.5993   3.0337   3.0995   3.1762   3.1792   3.3151   3.3161
     4.3882   4.3883   4.5394   4.5395   5.4640   7.8558   8.2180   8.2187
     8.7834   8.7838  10.8309  13.6303  17.5935  21.2019  21.8705

     occupation numbers 
     1.0000   1.0000   1.0000   1.0000   1.0000   1.0000   1.0000   1.0000
     1.0000   1.0000   1.0000   1.0000   1.0000   1.0000   1.0000   1.0000
     1.0000   1.0000   1.0000   1.0000   1.0000   1.0000   1.0000   1.0000
     1.0001   1.0001   0.0000   0.0000   0.0000   0.0000   0.0000

          k = 0.0000-0.0023 0.2325 (  1892 PWs)   bands (ev):

  -114.5435-114.5435 -68.7449 -68.7435 -68.7409 -68.7390 -68.7360 -68.7351
    -9.0028  -8.7221   2.9546   3.0121   3.1977   3.1997   3.2761   3.2774
     4.4298   4.4300   4.5129   4.5130   6.0313   7.2522   8.3490   8.3495
     8.6556   8.6560  11.6028  13.0584  18.1789  20.0205  21.9451

     occupation numbers 
     1.0000   1.0000   1.0000   1.0000   1.0000   1.0000   1.0000   1.0000
     1.0000   1.0000   1.0000   1.0000   1.0000   1.0000   1.0000   1.0000
     1.0000   1.0000   1.0000   1.0000   1.0000   1.0000   1.0000   1.0000
     1.0000   1.0000   0.0000   0.0000   0.0000   0.0000   0.0000

          k = 0.0000 0.0031-0.3100 (  1890 PWs)   bands (ev):

  -114.5435-114.5435 -68.7447 -68.7437 -68.7409 -68.7391 -68.7360 -68.7351
    -8.8640  -8.8640   2.9521   2.9522   3.2191   3.2208   3.2475   3.2491
     4.4677   4.4679   4.4811   4.4813   6.6402   6.6402   8.4920   8.4925
     8.5139   8.5143  12.3636  12.3636  18.9915  18.9916  22.0427

     occupation numbers 
     1.0000   1.0000   1.0000   1.0000   1.0000   1.0000   1.0000   1.0000
     1.0000   1.0000   1.0000   1.0000   1.0000   1.0000   1.0000   1.0000
     1.0000   1.0000   1.0000   1.0000   1.0000   1.0000   1.0000   1.0000
     1.0000   1.0000   0.0000   0.0000   0.0000   0.0000   0.0000

          k = 0.0000 0.0962-0.0010 (  1892 PWs)   bands (ev):

  -114.5436-114.5434 -68.7455 -68.7428 -68.7410 -68.7391 -68.7361 -68.7352
    -9.1812  -8.4688   3.1146   3.1827   3.2329   3.2843   3.3569   3.3878
     4.3306   4.3445   4.5623   4.5886   4.8285   7.8425   8.0048   8.4151
     8.7644   8.8475  10.2658  14.4511  17.1090  21.0891  21.9178

     occupation numbers 
     1.0000   1.0000   1.0000   1.0000   1.0000   1.0000   1.0000   1.0000
     1.0000   1.0000   1.0000   1.0000   1.0000   1.0000   1.0000   1.0000
     1.0000   1.0000   1.0000   1.0000   1.0000   1.0000   1.0000   1.0000
     1.0001   1.0006   0.0000   0.0000   0.0000   0.0000   0.0000

          k = 0.0000 0.0955 0.0765 (  1872 PWs)   bands (ev):

  -114.5436-114.5434 -68.7454 -68.7429 -68.7409 -68.7390 -68.7360 -68.7352
    -9.1568  -8.4956   3.0995   3.1864   3.1871   3.2278   3.3560   3.3764
     4.3444   4.3560   4.5562   4.5795   5.0200   7.8774   8.0394   8.1798
     8.7702   8.8148  10.5131  14.3071  17.2109  21.1245  21.9246

     occupation numbers 
     1.0000   1.0000   1.0000   1.0000   1.0000   1.0000   1.0000   1.0000
     1.0000   1.0000   1.0000   1.0000   1.0000   1.0000   1.0000   1.0000
     1.0000   1.0000   1.0000   1.0000   1.0000   1.0000   1.0000   1.0000
     1.0001   1.0003   0.0000   0.0000   0.0000   0.0000   0.0000

          k = 0.0000 0.0947 0.1540 (  1876 PWs)   bands (ev):

  -114.5435-114.5434 -68.7452 -68.7430 -68.7409 -68.7391 -68.7360 -68.7352
    -9.0841  -8.5748   3.0349   3.0527   3.2003   3.2182   3.3309   3.3455
     4.3789   4.3867   4.5394   4.5540   5.4781   7.7237   7.9910   8.1339
     8.6592   8.7241  11.1056  13.8942  17.5608  21.0133  21.4576

     occupation numbers 
     1.0000   1.0000   1.0000   1.0000   1.0000   1.0000   1.0000   1.0000
     1.0000   1.0000   1.0000   1.0000   1.0000   1.0000   1.0000   1.0000
     1.0000   1.0000   1.0000   1.0000   1.0000   1.0000   1.0000   1.0000
     1.0000   1.0000   0.0000   0.0000   0.0000   0.0000   0.0000

          k = 0.0000 0.0939 0.2315 (  1886 PWs)   bands (ev):

  -114.5435-114.5434 -68.7450 -68.7434 -68.7409 -68.7391 -68.7360 -68.7353
    -8.9728  -8.6929   2.9434   2.9772   3.2231   3.2296   3.2936   3.3051
     4.4252   4.4291   4.5109   4.5196   6.0450   7.2067   8.1344   8.2731
     8.4906   8.5885  11.8279  13.2962  18.1393  20.0049  21.4733

     occupation numbers 
     1.0000   1.0000   1.0000   1.0000   1.0000   1.0000   1.0000   1.0000
     1.0000   1.0000   1.0000   1.0000   1.0000   1.0000   1.0000   1.0000
     1.0000   1.0000   1.0000   1.0000   1.0000   1.0000   1.0000   1.0000
     1.0000   1.0000   0.0000   0.0000   0.0000   0.0000   0.0000

          k = 0.0000 0.0993-0.3110 (  1902 PWs)   bands (ev):

  -114.5435-114.5435 -68.7448 -68.7437 -68.7410 -68.7392 -68.7361 -68.7353
    -8.8383  -8.8303   2.9266   2.9327   3.2441   3.2455   3.2694   3.2753
     4.4669   4.4671   4.4793   4.4811   6.6366   6.6409   8.2932   8.3177
     8.4210   8.4419  12.5753  12.5907  18.9434  19.0160  21.5531

     occupation numbers 
     1.0000   1.0000   1.0000   1.0000   1.0000   1.0000   1.0000   1.0000
     1.0000   1.0000   1.0000   1.0000   1.0000   1.0000   1.0000   1.0000
     1.0000   1.0000   1.0000   1.0000   1.0000   1.0000   1.0000   1.0000
     1.0000   1.0000   0.0000   0.0000   0.0000   0.0000   0.0000

          k = 0.0000 0.0986-0.2335 (  1892 PWs)   bands (ev):

  -114.5435-114.5434 -68.7448 -68.7436 -68.7410 -68.7392 -68.7360 -68.7353
    -8.9657  -8.7005   2.9465   2.9795   3.2228   3.2229   3.2996   3.3049
     4.4232   4.4265   4.5148   4.5164   6.0514   7.2116   8.1217   8.2652
     8.4846   8.5960  11.8445  13.2783  18.2238  19.9627  21.3549

     occupation numbers 
     1.0000   1.0000   1.0000   1.0000   1.0000   1.0000   1.0000   1.0000
     1.0000   1.0000   1.0000   1.0000   1.0000   1.0000   1.0000   1.0000
     1.0000   1.0000   1.0000   1.0000   1.0000   1.0000   1.0000   1.0000
     1.0000   1.0000   0.0000   0.0000   0.0000   0.0000   0.0000

          k = 0.0000 0.0978-0.1560 (  1903 PWs)   bands (ev):

  -114.5435-114.5434 -68.7451 -68.7434 -68.7410 -68.7392 -68.7361 -68.7353
    -9.0789  -8.5808   3.0344   3.0618   3.1998   3.2126   3.3356   3.3451
     4.3759   4.3849   4.5429   4.5465   5.4862   7.7413   7.9844   8.1276
     8.6264   8.7297  11.1269  13.8730  17.6403  21.0513  21.3046

     occupation numbers 
     1.0000   1.0000   1.0000   1.0000   1.0000   1.0000   1.0000   1.0000
     1.0000   1.0000   1.0000   1.0000   1.0000   1.0000   1.0000   1.0000
     1.0000   1.0000   1.0000   1.0000   1.0000   1.0000   1.0000   1.0000
     1.0000   1.0000   0.0000   0.0000   0.0000   0.0000   0.0000

          k = 0.0000 0.0970-0.0785 (  1895 PWs)   bands (ev):

  -114.5436-114.5434 -68.7454 -68.7430 -68.7410 -68.7391 -68.7361 -68.7352
    -9.1540  -8.4990   3.0995   3.1867   3.1923   3.2262   3.3585   3.3761
     4.3422   4.3551   4.5583   4.5677   5.0303   7.8692   8.0359   8.2255
     8.7092   8.8178  10.5358  14.2900  17.2622  21.0976  21.9115

     occupation numbers 
     1.0000   1.0000   1.0000   1.0000   1.0000   1.0000   1.0000   1.0000
     1.0000   1.0000   1.0000   1.0000   1.0000   1.0000   1.0000   1.0000
     1.0000   1.0000   1.0000   1.0000   1.0000   1.0000   1.0000   1.0000
     1.0000   1.0003   0.0000   0.0000   0.0000   0.0000   0.0000

          k = 0.0000 0.1925-0.0019 (  1892 PWs)   bands (ev):

  -114.5435-114.5434 -68.7455 -68.7430 -68.7412 -68.7393 -68.7362 -68.7356
    -9.0710  -8.4220   3.0107   3.2418   3.2683   3.3425   3.4787   3.4818
     4.2864   4.3455   4.5707   4.6736   4.8090   7.1819   7.7483   7.7826
     8.6220   8.7052  11.1745  15.1711  17.0988  19.7724  21.5005

     occupation numbers 
     1.0000   1.0000   1.0000   1.0000   1.0000   1.0000   1.0000   1.0000
     1.0000   1.0000   1.0000   1.0000   1.0000   1.0000   1.0000   1.0000
     1.0000   1.0000   1.0000   1.0000   1.0000   1.0000   1.0000   1.0000
     1.0000   1.0000   0.0000   0.0000   0.0000   0.0000   0.0000

          k = 0.0000 0.1917 0.0756 (  1898 PWs)   bands (ev):

  -114.5435-114.5434 -68.7455 -68.7430 -68.7412 -68.7393 -68.7362 -68.7357
    -9.0498  -8.4444   2.9930   3.2100   3.2477   3.3134   3.4420   3.4661
     4.3071   4.3563   4.5627   4.6354   5.0410   7.2201   7.6670   7.7890
     8.6087   8.6674  11.3198  14.9980  17.1838  19.8288  21.3706

     occupation numbers 
     1.0000   1.0000   1.0000   1.0000   1.0000   1.0000   1.0000   1.0000
     1.0000   1.0000   1.0000   1.0000   1.0000   1.0000   1.0000   1.0000
     1.0000   1.0000   1.0000   1.0000   1.0000   1.0000   1.0000   1.0000
     1.0000   1.0000   0.0000   0.0000   0.0000   0.0000   0.0000

          k = 0.0000 0.1909 0.1531 (  1894 PWs)   bands (ev):

  -114.5435-114.5434 -68.7454 -68.7430 -68.7411 -68.7394 -68.7361 -68.7357
    -8.9839  -8.5142   2.9442   3.0505   3.2646   3.2959   3.3962   3.4319
     4.3537   4.3859   4.5426   4.5875   5.5242   7.2515   7.5044   7.8982
     8.4608   8.5643  11.7504  14.5049  17.5285  19.8827  21.0457

     occupation numbers 
     1.0000   1.0000   1.0000   1.0000   1.0000   1.0000   1.0000   1.0000
     1.0000   1.0000   1.0000   1.0000   1.0000   1.0000   1.0000   1.0000
     1.0000   1.0000   1.0000   1.0000   1.0000   1.0000   1.0000   1.0000
     1.0000   1.0000   0.0000   0.0000   0.0000   0.0000   0.0000

          k = 0.0000 0.1901 0.2306 (  1903 PWs)   bands (ev):

  -114.5435-114.5434 -68.7452 -68.7433 -68.7411 -68.7395 -68.7362 -68.7357
    -8.8824  -8.6201   2.8901   2.9229   3.2925   3.3011   3.3535   3.3865
     4.4133   4.4276   4.5108   4.5373   6.0711   6.9922   7.6248   8.0576
     8.1955   8.4106  12.3719  13.8425  18.0699  19.5942  20.7855

     occupation numbers 
     1.0000   1.0000   1.0000   1.0000   1.0000   1.0000   1.0000   1.0000
     1.0000   1.0000   1.0000   1.0000   1.0000   1.0000   1.0000   1.0000
     1.0000   1.0000   1.0000   1.0000   1.0000   1.0000   1.0000   1.0000
     1.0000   1.0000   0.0000   0.0000   0.0000   0.0000   0.0000

          k = 0.0000 0.1956-0.3119 (  1904 PWs)   bands (ev):

  -114.5435-114.5435 -68.7450 -68.7436 -68.7411 -68.7395 -68.7362 -68.7357
    -8.7599  -8.7448   2.8665   2.8798   3.3086   3.3188   3.3338   3.3526
     4.4667   4.4681   4.4768   4.4841   6.5744   6.5911   7.8668   7.8991
     8.2257   8.2445  13.0842  13.1152  18.7790  18.9029  20.7613

     occupation numbers 
     1.0000   1.0000   1.0000   1.0000   1.0000   1.0000   1.0000   1.0000
     1.0000   1.0000   1.0000   1.0000   1.0000   1.0000   1.0000   1.0000
     1.0000   1.0000   1.0000   1.0000   1.0000   1.0000   1.0000   1.0000
     1.0000   1.0000   0.0000   0.0000   0.0000   0.0000   0.0000

          k = 0.0000 0.1948-0.2344 (  1909 PWs)   bands (ev):

  -114.5435-114.5434 -68.7449 -68.7438 -68.7411 -68.7395 -68.7362 -68.7356
    -8.8690  -8.6344   2.8853   2.9325   3.2900   3.2913   3.3679   3.3864
     4.4107   4.4250   4.5159   4.5296   6.0780   7.0141   7.6244   8.0443
     8.1582   8.4230  12.4019  13.8040  18.2286  19.5411  20.6049

     occupation numbers 
     1.0000   1.0000   1.0000   1.0000   1.0000   1.0000   1.0000   1.0000
     1.0000   1.0000   1.0000   1.0000   1.0000   1.0000   1.0000   1.0000
     1.0000   1.0000   1.0000   1.0000   1.0000   1.0000   1.0000   1.0000
     1.0000   1.0000   0.0000   0.0000   0.0000   0.0000   0.0000

          k = 0.0000 0.1940-0.1569 (  1908 PWs)   bands (ev):

  -114.5435-114.5434 -68.7451 -68.7436 -68.7412 -68.7394 -68.7362 -68.7356
    -8.9740  -8.5255   2.9422   3.0587   3.2633   3.2886   3.4109   3.4314
     4.3487   4.3844   4.5475   4.5715   5.5393   7.2532   7.5389   7.8876
     8.3965   8.5736  11.7823  14.4553  17.6894  19.8304  21.0498

     occupation numbers 
     1.0000   1.0000   1.0000   1.0000   1.0000   1.0000   1.0000   1.0000
     1.0000   1.0000   1.0000   1.0000   1.0000   1.0000   1.0000   1.0000
     1.0000   1.0000   1.0000   1.0000   1.0000   1.0000   1.0000   1.0000
     1.0000   1.0000   0.0000   0.0000   0.0000   0.0000   0.0000

          k = 0.0000 0.1932-0.0794 (  1908 PWs)   bands (ev):

  -114.5435-114.5434 -68.7454 -68.7433 -68.7412 -68.7394 -68.7362 -68.7356
    -9.0445  -8.4506   2.9923   3.2128   3.2468   3.3107   3.4552   3.4657
     4.3025   4.3558   4.5658   4.6090   5.0643   7.2107   7.7124   7.7831
     8.5486   8.6724  11.3447  14.9523  17.2973  19.7860  21.4547

     occupation numbers 
     1.0000   1.0000   1.0000   1.0000   1.0000   1.0000   1.0000   1.0000
     1.0000   1.0000   1.0000   1.0000   1.0000   1.0000   1.0000   1.0000
     1.0000   1.0000   1.0000   1.0000   1.0000   1.0000   1.0000   1.0000
     1.0000   1.0000   0.0000   0.0000   0.0000   0.0000   0.0000

          k = 0.0000 0.2887-0.0029 (  1896 PWs)   bands (ev):

  -114.5435-114.5434 -68.7455 -68.7432 -68.7413 -68.7396 -68.7363 -68.7361
    -8.9110  -8.3627   2.9059   3.2492   3.3144   3.4380   3.6168   3.7237
     4.2341   4.3683   4.5806   4.7299   4.8693   6.3931   7.1786   7.3945
     8.3841   8.5007  12.1670  15.9657  17.0591  18.5831  20.5441

     occupation numbers 
     1.0000   1.0000   1.0000   1.0000   1.0000   1.0000   1.0000   1.0000
     1.0000   1.0000   1.0000   1.0000   1.0000   1.0000   1.0000   1.0000
     1.0000   1.0000   1.0000   1.0000   1.0000   1.0000   1.0000   1.0000
     1.0000   1.0000   0.0000   0.0000   0.0000   0.0000   0.0000

          k = 0.0000 0.2879 0.0746 (  1907 PWs)   bands (ev):

  -114.5435-114.5434 -68.7456 -68.7431 -68.7413 -68.7397 -68.7364 -68.7362
    -8.8940  -8.3796   2.8876   3.1918   3.3232   3.4247   3.6014   3.6302
     4.2671   4.3768   4.5715   4.6910   5.1093   6.4425   7.0978   7.4426
     8.3929   8.4576  12.2506  15.7349  17.1412  18.6573  20.4661

     occupation numbers 
     1.0000   1.0000   1.0000   1.0000   1.0000   1.0000   1.0000   1.0000
     1.0000   1.0000   1.0000   1.0000   1.0000   1.0000   1.0000   1.0000
     1.0000   1.0000   1.0000   1.0000   1.0000   1.0000   1.0000   1.0000
     1.0000   1.0000   0.0000   0.0000   0.0000   0.0000   0.0000

          k = 0.0000 0.2872 0.1521 (  1913 PWs)   bands (ev):

  -114.5435-114.5434 -68.7456 -68.7432 -68.7413 -68.7398 -68.7364 -68.7363
    -8.8382  -8.4359   2.8431   3.0390   3.3475   3.4051   3.5236   3.5597
     4.3302   4.4012   4.5491   4.6306   5.5723   6.5565   6.9892   7.5711
     8.2902   8.3398  12.5389  15.1359  17.4682  18.7557  20.3223

     occupation numbers 
     1.0000   1.0000   1.0000   1.0000   1.0000   1.0000   1.0000   1.0000
     1.0000   1.0000   1.0000   1.0000   1.0000   1.0000   1.0000   1.0000
[...]
     4.4554   4.5055   4.6035   4.7188   5.0668   5.3649   6.5121   6.8432
     7.6948   7.8030  14.5218  15.6274  16.9616  17.5397  19.4089

     occupation numbers 
     1.0000   1.0000   1.0000   1.0000   1.0000   1.0000   1.0000   1.0000
     1.0000   1.0000   1.0000   1.0000   1.0000   1.0000   1.0000   1.0000
     1.0000   1.0000   1.0000   1.0000   1.0000   1.0000   1.0000   1.0000
     1.0000   1.0000   0.0000   0.0000   0.0000   0.0000   0.0000

          k =-0.5000-0.1917-0.0756 (  1909 PWs)   bands (ev):

  -114.5434-114.5434 -68.7451 -68.7435 -68.7428 -68.7397 -68.7378 -68.7359
    -8.5145  -8.3017   2.9286   3.1453   3.4147   3.7252   3.8291   3.9464
     4.4004   4.4874   4.6093   4.7248   5.0668   5.4201   6.1821   6.6135
     7.6437   7.9075  14.6325  15.9612  16.6915  17.5007  19.5012

     occupation numbers 
     1.0000   1.0000   1.0000   1.0000   1.0000   1.0000   1.0000   1.0000
     1.0000   1.0000   1.0000   1.0000   1.0000   1.0000   1.0000   1.0000
     1.0000   1.0000   1.0000   1.0000   1.0000   1.0000   1.0000   1.0000
     1.0000   1.0000   0.0000   0.0000   0.0000   0.0000   0.0000

          k =-0.5000-0.0962 0.0010 (  1916 PWs)   bands (ev):

  -114.5434-114.5434 -68.7451 -68.7435 -68.7428 -68.7397 -68.7379 -68.7360
    -8.5297  -8.2916   3.0357   3.2831   3.4313   3.6478   3.9253   3.9975
     4.3185   4.3915   4.6186   4.8127   4.9926   5.6148   6.0090   6.3435
     7.5626   7.7706  14.7581  16.5511  16.9250  17.5221  19.6994

     occupation numbers 
     1.0000   1.0000   1.0000   1.0000   1.0000   1.0000   1.0000   1.0000
     1.0000   1.0000   1.0000   1.0000   1.0000   1.0000   1.0000   1.0000
     1.0000   1.0000   1.0000   1.0000   1.0000   1.0000   1.0000   1.0000
     1.0000   1.0000   0.0000   0.0000   0.0000   0.0000   0.0000

          k =-0.5000-0.0970 0.0785 (  1914 PWs)   bands (ev):

  -114.5434-114.5434 -68.7451 -68.7435 -68.7428 -68.7397 -68.7379 -68.7360
    -8.5193  -8.2996   3.0189   3.2300   3.4234   3.6351   3.8891   3.9302
     4.3161   4.4488   4.6159   4.8191   5.0054   5.6504   6.0654   6.4568
     7.5472   7.7726  14.7420  16.4039  17.0387  17.5717  19.4357

     occupation numbers 
     1.0000   1.0000   1.0000   1.0000   1.0000   1.0000   1.0000   1.0000
     1.0000   1.0000   1.0000   1.0000   1.0000   1.0000   1.0000   1.0000
     1.0000   1.0000   1.0000   1.0000   1.0000   1.0000   1.0000   1.0000
     1.0000   1.0000   0.0000   0.0000   0.0000   0.0000   0.0000

          k =-0.5000-0.0978 0.1560 (  1915 PWs)   bands (ev):

  -114.5434-114.5434 -68.7452 -68.7436 -68.7428 -68.7396 -68.7378 -68.7360
    -8.4906  -8.3223   2.9646   3.1014   3.4188   3.6052   3.7970   3.8481
     4.3725   4.4884   4.6171   4.7911   5.0916   5.6134   6.2713   6.7715
     7.4323   7.8119  14.7461  16.0632  17.2240  17.6666  19.0649

     occupation numbers 
     1.0000   1.0000   1.0000   1.0000   1.0000   1.0000   1.0000   1.0000
     1.0000   1.0000   1.0000   1.0000   1.0000   1.0000   1.0000   1.0000
     1.0000   1.0000   1.0000   1.0000   1.0000   1.0000   1.0000   1.0000
     1.0000   1.0000   0.0000   0.0000   0.0000   0.0000   0.0000

          k =-0.5000-0.0986 0.2335 (  1913 PWs)   bands (ev):

  -114.5434-114.5434 -68.7452 -68.7436 -68.7428 -68.7396 -68.7378 -68.7360
    -8.4491  -8.3578   2.9070   2.9652   3.4529   3.5691   3.7320   3.7801
     4.4380   4.4956   4.6354   4.7342   5.2191   5.5053   6.5625   7.0732
     7.3090   7.7931  14.8688  15.6270  17.3858  17.7077  18.9246

     occupation numbers 
     1.0000   1.0000   1.0000   1.0000   1.0000   1.0000   1.0000   1.0000
     1.0000   1.0000   1.0000   1.0000   1.0000   1.0000   1.0000   1.0000
     1.0000   1.0000   1.0000   1.0000   1.0000   1.0000   1.0000   1.0000
     1.0000   1.0000   0.0000   0.0000   0.0000   0.0000   0.0000

          k =-0.5000-0.0931-0.3090 (  1915 PWs)   bands (ev):

  -114.5434-114.5434 -68.7452 -68.7436 -68.7428 -68.7396 -68.7379 -68.7360
    -8.4083  -8.3961   2.8882   2.9032   3.5072   3.5203   3.7087   3.7553
     4.4766   4.4831   4.6727   4.6813   5.3411   5.3868   6.8466   6.8755
     7.5701   7.6286  15.1646  15.1959  17.4863  17.6374  19.1499

     occupation numbers 
     1.0000   1.0000   1.0000   1.0000   1.0000   1.0000   1.0000   1.0000
     1.0000   1.0000   1.0000   1.0000   1.0000   1.0000   1.0000   1.0000
     1.0000   1.0000   1.0000   1.0000   1.0000   1.0000   1.0000   1.0000
     1.0000   1.0000   0.0000   0.0000   0.0000   0.0000   0.0000

          k =-0.5000-0.0939-0.2315 (  1905 PWs)   bands (ev):

  -114.5434-114.5434 -68.7451 -68.7435 -68.7428 -68.7396 -68.7378 -68.7359
    -8.4500  -8.3569   2.8963   2.9736   3.4493   3.5739   3.7320   3.7839
     4.4366   4.4961   4.6346   4.7362   5.2353   5.4846   6.5431   7.0835
     7.3278   7.7869  14.8882  15.5880  17.3982  17.6283  19.0864

     occupation numbers 
     1.0000   1.0000   1.0000   1.0000   1.0000   1.0000   1.0000   1.0000
     1.0000   1.0000   1.0000   1.0000   1.0000   1.0000   1.0000   1.0000
     1.0000   1.0000   1.0000   1.0000   1.0000   1.0000   1.0000   1.0000
     1.0000   1.0000   0.0000   0.0000   0.0000   0.0000   0.0000

          k =-0.5000-0.0947-0.1540 (  1912 PWs)   bands (ev):

  -114.5434-114.5434 -68.7451 -68.7435 -68.7428 -68.7397 -68.7379 -68.7360
    -8.4912  -8.3216   2.9542   3.1106   3.4117   3.6090   3.7920   3.8618
     4.3738   4.4872   4.6170   4.7933   5.1055   5.5901   6.2578   6.7654
     7.4753   7.7949  14.7569  16.0196  17.2248  17.6000  19.2371

     occupation numbers 
     1.0000   1.0000   1.0000   1.0000   1.0000   1.0000   1.0000   1.0000
     1.0000   1.0000   1.0000   1.0000   1.0000   1.0000   1.0000   1.0000
     1.0000   1.0000   1.0000   1.0000   1.0000   1.0000   1.0000   1.0000
     1.0000   1.0000   0.0000   0.0000   0.0000   0.0000   0.0000

          k =-0.5000-0.0955-0.0765 (  1915 PWs)   bands (ev):

  -114.5434-114.5434 -68.7451 -68.7435 -68.7428 -68.7397 -68.7379 -68.7360
    -8.5197  -8.2992   3.0121   3.2413   3.4127   3.6344   3.8763   3.9524
     4.3222   4.4444   4.6163   4.8216   5.0139   5.6293   6.0596   6.4539
     7.5897   7.7465  14.7467  16.3669  17.0435  17.5417  19.5618

     occupation numbers 
     1.0000   1.0000   1.0000   1.0000   1.0000   1.0000   1.0000   1.0000
     1.0000   1.0000   1.0000   1.0000   1.0000   1.0000   1.0000   1.0000
     1.0000   1.0000   1.0000   1.0000   1.0000   1.0000   1.0000   1.0000
     1.0000   1.0000   0.0000   0.0000   0.0000   0.0000   0.0000

          k =-0.5000 0.0000 0.0000 (  1919 PWs)   bands (ev):

  -114.5434-114.5434 -68.7451 -68.7435 -68.7428 -68.7397 -68.7380 -68.7361
    -8.5324  -8.2903   3.1228   3.2208   3.5192   3.5901   3.9550   4.0619
     4.2263   4.3621   4.6194   4.8632   4.9622   5.6874   6.0301   6.1980
     7.5642   7.6716  14.7944  16.5789  17.4269  17.5122  19.9501

     occupation numbers 
     1.0000   1.0000   1.0000   1.0000   1.0000   1.0000   1.0000   1.0000
     1.0000   1.0000   1.0000   1.0000   1.0000   1.0000   1.0000   1.0000
     1.0000   1.0000   1.0000   1.0000   1.0000   1.0000   1.0000   1.0000
     1.0000   1.0000   0.0000   0.0000   0.0000   0.0000   0.0000

          k =-0.5000-0.0008 0.0775 (  1913 PWs)   bands (ev):

  -114.5434-114.5434 -68.7450 -68.7435 -68.7428 -68.7396 -68.7379 -68.7360
    -8.5220  -8.2981   3.1179   3.1740   3.5184   3.5518   3.9107   3.9428
     4.2601   4.4339   4.6175   4.8662   5.0122   5.7211   6.0274   6.3403
     7.5124   7.7148  14.8085  16.4769  17.4478  17.5530  19.6122

     occupation numbers 
     1.0000   1.0000   1.0000   1.0000   1.0000   1.0000   1.0000   1.0000
     1.0000   1.0000   1.0000   1.0000   1.0000   1.0000   1.0000   1.0000
     1.0000   1.0000   1.0000   1.0000   1.0000   1.0000   1.0000   1.0000
     1.0000   1.0000   0.0000   0.0000   0.0000   0.0000   0.0000

          k =-0.5000-0.0015 0.1550 (  1912 PWs)   bands (ev):

  -114.5434-114.5434 -68.7451 -68.7435 -68.7428 -68.7396 -68.7379 -68.7360
    -8.4930  -8.3212   3.0683   3.0874   3.4607   3.5152   3.7879   3.8553
     4.3375   4.4824   4.6201   4.8199   5.1616   5.7131   6.1298   6.6908
     7.3560   7.8010  14.8763  16.1958  17.5067  17.6555  19.1149

     occupation numbers 
     1.0000   1.0000   1.0000   1.0000   1.0000   1.0000   1.0000   1.0000
     1.0000   1.0000   1.0000   1.0000   1.0000   1.0000   1.0000   1.0000
     1.0000   1.0000   1.0000   1.0000   1.0000   1.0000   1.0000   1.0000
     1.0000   1.0000   0.0000   0.0000   0.0000   0.0000   0.0000

          k =-0.5000-0.0023 0.2325 (  1912 PWs)   bands (ev):

  -114.5434-114.5434 -68.7452 -68.7436 -68.7428 -68.7396 -68.7379 -68.7360
    -8.4510  -8.3574   2.9802   3.0092   3.4282   3.4977   3.7244   3.7832
     4.4159   4.4892   4.6404   4.7523   5.3219   5.6105   6.3806   6.9188
     7.3084   7.7950  15.0554  15.7957  17.5858  17.7746  18.7706

     occupation numbers 
     1.0000   1.0000   1.0000   1.0000   1.0000   1.0000   1.0000   1.0000
     1.0000   1.0000   1.0000   1.0000   1.0000   1.0000   1.0000   1.0000
     1.0000   1.0000   1.0000   1.0000   1.0000   1.0000   1.0000   1.0000
     1.0000   1.0000   0.0000   0.0000   0.0000   0.0000   0.0000

          k =-0.5000 0.0031-0.3100 (  1908 PWs)   bands (ev):

  -114.5434-114.5434 -68.7452 -68.7435 -68.7427 -68.7396 -68.7379 -68.7359
    -8.4088  -8.3970   2.9502   2.9631   3.4522   3.4674   3.7028   3.7560
     4.4640   4.4723   4.6821   4.6915   5.4494   5.4972   6.6739   6.6903
     7.5782   7.6362  15.3675  15.3885  17.6309  17.8284  18.6987

     occupation numbers 
     1.0000   1.0000   1.0000   1.0000   1.0000   1.0000   1.0000   1.0000
     1.0000   1.0000   1.0000   1.0000   1.0000   1.0000   1.0000   1.0000
     1.0000   1.0000   1.0000   1.0000   1.0000   1.0000   1.0000   1.0000
     1.0000   1.0000   0.0000   0.0000   0.0000   0.0000   0.0000

     the Fermi energy is     9.4860 ev

     WARNING: integrated charge=    52.00007330, expected=    52.00000000

!    total energy              =   -1006.56817178 Ry
     estimated scf accuracy    <          3.4E-10 Ry
     smearing contrib. (-TS)   =       0.00000077 Ry
     internal energy E=F+TS    =   -1006.56817255 Ry

     The total energy is F=E-TS. E is the sum of the following terms:
     one-electron contribution =    -803.97689574 Ry
     hartree contribution      =     424.15485985 Ry
     xc contribution           =     -99.53033437 Ry
     ewald contribution        =    -508.18781995 Ry
     one-center paw contrib.   =     -19.02798233 Ry
      -> PAW hartree energy AE =      52.90922574 Ry
      -> PAW hartree energy PS =     -52.65782620 Ry
      -> PAW xc energy AE      =     -33.43530382 Ry
      -> PAW xc energy PS      =      14.15592195 Ry
      -> total E_H with PAW    =     424.40625939 Ry
      -> total E_XC with PAW   =    -118.80971624 Ry

     convergence has been achieved in  11 iterations

     Forces acting on atoms (cartesian axes, Ry/au):

     atom    1 type  2   force =     0.00000000   -0.00358382   -0.00007860
     atom    2 type  2   force =     0.00000000   -0.00387033   -0.00007653
     atom    3 type  1   force =     0.00000000    0.00388957    0.00007843
     atom    4 type  1   force =     0.00000000    0.00356459    0.00007670
     The non-local contrib.  to forces
     atom    1 type  2   force =     0.00000000   -0.04947982   -0.01240257
     atom    2 type  2   force =     0.00000000   -0.04942479   -0.01240924
     atom    3 type  1   force =     0.00000000   -0.02315678    0.00434001
     atom    4 type  1   force =     0.00000000   -0.02375429    0.00434530
     The ionic contribution  to forces
     atom    1 type  2   force =    -0.00000063   -0.34135202    0.08189929
     atom    2 type  2   force =     0.00000060   -0.35997604    0.08224642
     atom    3 type  1   force =    -0.00000052    0.35319540   -0.08207432
     atom    4 type  1   force =     0.00000055    0.34813267   -0.08207139
     The local contribution  to forces
     atom    1 type  2   force =    -0.00001934    0.38724957   -0.06956785
     atom    2 type  2   force =     0.00001935    0.40553237   -0.06991365
     atom    3 type  1   force =    -0.00000114   -0.32637361    0.07787561
     atom    4 type  1   force =     0.00000112   -0.32104617    0.07786726
     The core correction contribution to forces
     atom    1 type  2   force =     0.00000000    0.00000000    0.00000000
     atom    2 type  2   force =     0.00000000    0.00000000    0.00000000
     atom    3 type  1   force =    -0.00000000    0.00022163   -0.00006584
     atom    4 type  1   force =     0.00000000    0.00022913   -0.00006698
     The Hubbard contrib.    to forces
     atom    1 type  2   force =     0.00000000    0.00000000    0.00000000
     atom    2 type  2   force =     0.00000000    0.00000000    0.00000000
     atom    3 type  1   force =     0.00000000    0.00000000    0.00000000
     atom    4 type  1   force =     0.00000000    0.00000000    0.00000000
     The SCF correction term to forces
     atom    1 type  2   force =    -0.00000000   -0.00000284   -0.00001152
     atom    2 type  2   force =     0.00000000   -0.00000317   -0.00000411
     atom    3 type  1   force =    -0.00000000    0.00000162   -0.00000107
     atom    4 type  1   force =     0.00000000    0.00000193   -0.00000153

     Total force =     0.007462     Total SCF correction =     0.000013


     Computing stress (Cartesian axis) and pressure

          total   stress  (Ry/bohr**3)                   (kbar)     P=       55.22
   0.00037353   0.00000000   0.00000000           54.95        0.00        0.00
   0.00000000   0.00037453  -0.00007280            0.00       55.10      -10.71
   0.00000000  -0.00007280   0.00037805            0.00      -10.71       55.61

     kinetic stress (kbar)  35031.77      0.00      0.00
                                0.00  35031.67    -16.18
                                0.00    -16.18  35061.50

     local   stress (kbar)  -5366.11     -0.00      0.00
                               -0.00  -5366.23    -45.34
                                0.00    -45.34  -9563.68

     nonloc. stress (kbar)   -722.80     -0.00      0.00
                               -0.00   -722.85      3.80
                                0.00      3.80   -735.84

     hartree stress (kbar)  64367.80     -0.00      0.00
                               -0.00  64367.45     26.19
                                0.00     26.19  66360.02

     exc-cor stress (kbar) -14219.11      0.00      0.00
                                0.00 -14219.11      0.28
                                0.00      0.28 -14219.24

     corecor stress (kbar)   -390.76     -0.00      0.00
                               -0.00   -390.76      0.06
                                0.00      0.06   -390.79

     ewald   stress (kbar) -78645.84      0.00     -0.00
                                0.00 -78645.07     20.48
                               -0.00     20.48 -76456.37

     hubbard stress (kbar)      0.00      0.00      0.00
                                0.00      0.00      0.00
                                0.00      0.00      0.00

     DFT-D   stress (kbar)      0.00      0.00      0.00
                                0.00      0.00      0.00
                                0.00      0.00      0.00

     XDM     stress (kbar)      0.00      0.00      0.00
                                0.00      0.00      0.00
                                0.00      0.00      0.00

     dft-nl  stress (kbar)      0.00      0.00      0.00
                                0.00      0.00      0.00
                                0.00      0.00      0.00

     TS-vdW  stress (kbar)      0.00      0.00      0.00
                                0.00      0.00      0.00
                                0.00      0.00      0.00

     MDB     stress (kbar)      0.00      0.00      0.00
                                0.00      0.00      0.00
                                0.00      0.00      0.00

     3D-RISM stress (kbar)      0.00      0.00      0.00
                                0.00      0.00      0.00
                                0.00      0.00      0.00


     Writing all to output data dir ./temp_hexag/aiida.save/ :
     XML data file, charge density, pseudopotentials, collected wavefunctions

     init_run     :    636.97s CPU     28.82s WALL (       1 calls)
     electrons    :  13468.17s CPU    641.50s WALL (       1 calls)
     forces       :    169.07s CPU      7.19s WALL (       1 calls)
     stress       :    140.42s CPU      6.50s WALL (       1 calls)

     Called by init_run:
     wfcinit      :    630.94s CPU     28.25s WALL (       1 calls)
     wfcinit:atom :      8.39s CPU      0.44s WALL (     320 calls)
     wfcinit:wfcr :    604.15s CPU     26.63s WALL (     320 calls)
     potinit      :      2.81s CPU      0.14s WALL (       1 calls)
     hinit0       :      1.10s CPU      0.23s WALL (       1 calls)

     Called by electrons:
     c_bands      :  11577.53s CPU    560.55s WALL (      11 calls)
     sum_band     :   1868.57s CPU     79.18s WALL (      11 calls)
     v_of_rho     :      5.47s CPU      0.24s WALL (      12 calls)
     v_h          :      0.54s CPU      0.03s WALL (      12 calls)
     v_xc         :      5.65s CPU      0.23s WALL (      14 calls)
     newd         :     13.36s CPU      1.29s WALL (      12 calls)
     PAW_pot      :      5.35s CPU      0.23s WALL (      12 calls)
     mix_rho      :      1.30s CPU      0.08s WALL (      11 calls)

     Called by c_bands:
     init_us_2    :     98.22s CPU      5.31s WALL (    8000 calls)
     cegterg      :  11312.96s CPU    548.47s WALL (    3520 calls)

     Called by sum_band:
     sum_band:wei :      0.91s CPU      0.06s WALL (      11 calls)
     sum_band:loo :   1862.26s CPU     77.80s WALL (      11 calls)
     sum_band:buf :     10.19s CPU      0.40s WALL (    3520 calls)
     sum_band:ini :     39.36s CPU      1.69s WALL (    3520 calls)
     sum_band:cal :    390.43s CPU     15.49s WALL (    3520 calls)
     sum_band:bec :     53.99s CPU      2.49s WALL (    3520 calls)
     addusdens    :      4.82s CPU      1.22s WALL (      11 calls)
                                        0.00s GPU  (      11 calls)
     addusd:skk   :      0.00s CPU      0.00s WALL (      22 calls)
                                        0.00s GPU  (      22 calls)

     Called by *egterg:
     cdiaghg      :    119.51s CPU      9.70s WALL (   12597 calls)
     cegterg:over :   1001.22s CPU     40.67s WALL (    9077 calls)
     cegterg:upda :    413.06s CPU     29.04s WALL (    9077 calls)
     cegterg:last :    326.90s CPU     47.88s WALL (    6920 calls)
     h_psi        :   8588.33s CPU    374.21s WALL (   12917 calls)
     s_psi        :    797.47s CPU     40.49s WALL (   12917 calls)
     g_psi        :     69.47s CPU      3.36s WALL (    9077 calls)

     Called by h_psi:
     h_psi:calbec :    883.93s CPU     37.22s WALL (   12917 calls)
     vloc_psi     :   6602.46s CPU    293.01s WALL (   12917 calls)
     add_vuspsi   :   1016.09s CPU     39.47s WALL (   12917 calls)

     General routines
     calbec       :   1434.87s CPU     59.27s WALL (   18037 calls)
     fft          :      6.09s CPU      0.24s WALL (     179 calls)
     ffts         :      0.24s CPU      0.01s WALL (      23 calls)
     fftw         :   3573.84s CPU    162.21s WALL (  632866 calls)
     interpolate  :      0.26s CPU      0.03s WALL (      12 calls)

     Parallel routines

     PAW routines
     PAW_pot      :      5.35s CPU      0.23s WALL (      12 calls)
     PAW_symme    :      0.00s CPU      0.00s WALL (      23 calls)

     PWSCF        :      4h 1m CPU  11m27.64s WALL


   This run was terminated on:  23:54:21  14Jun2024            

=------------------------------------------------------------------------------=
   JOB DONE.
=------------------------------------------------------------------------------=
