
     Program PWSCF v.7.3.1 starts on 11Jun2024 at 23:13:17 

     This program is part of the open-source Quantum ESPRESSO suite
     for quantum simulation of materials; please cite
         "P. Giannozzi et al., J. Phys.:Condens. Matter 21 395502 (2009);
         "P. Giannozzi et al., J. Phys.:Condens. Matter 29 465901 (2017);
         "P. Giannozzi et al., J. Chem. Phys. 152 154105 (2020);
          URL http://www.quantum-espresso.org", 
     in publications or presentations arising from this work. More details at
     http://www.quantum-espresso.org/quote

     Parallel version (MPI & OpenMP), running on      24 processor cores
     Number of MPI processes:                 1
     Threads/MPI process:                    24

     MPI processes distributed on     1 nodes
     4740 MiB available memory on the printing compute node when the environment starts

     Waiting for input...
     Reading input from standard input

     Current dimensions of program PWSCF are:
     Max number of different atomic species (ntypx) = 10
     Max number of k-points (npk) =  40000
     Max angular momentum in pseudopotentials (lmaxx) =  4
     file O.pbe-n-kjpaw_psl.0.1.UPF: wavefunction(s)  2P renormalized
     Message from routine setup:
     using ibrav=0 with symmetry is DISCOURAGED, use correct ibrav instead

     Subspace diagonalization in iterative solution of the eigenvalue problem:
     a serial algorithm will be used


     G-vector sticks info
     --------------------
     sticks:   dense  smooth     PW     G-vecs:    dense   smooth      PW
     Sum        1123     559    163                48515    17225    2863

     Using Slab Decomposition



     bravais-lattice index     =            0
     lattice parameter (alat)  =       6.3624  a.u.
     unit-cell volume          =     359.7898 (a.u.)^3
     number of atoms/cell      =            4
     number of atomic types    =            2
     number of electrons       =        52.00
     number of Kohn-Sham states=           31
     kinetic-energy cutoff     =      50.0000  Ry
     charge density cutoff     =     400.0000  Ry
     scf convergence threshold =      2.0E-08
     mixing beta               =       0.4000
     number of iterations used =            8  plain     mixing
     Exchange-correlation= SLA  PW   PBE  PBE
                           (   1   4   3   4   0   0   0)

     celldm(1)=   6.362415  celldm(2)=   0.000000  celldm(3)=   0.000000
     celldm(4)=   0.000000  celldm(5)=   0.000000  celldm(6)=   0.000000

     crystal axes: (cart. coord. in units of alat)
               a(1) = (   1.000000   0.000000   0.000000 )  
               a(2) = (  -0.500000   0.866025   0.000000 )  
               a(3) = (   0.000000   0.000000   1.613066 )  

     reciprocal axes: (cart. coord. in units 2 pi/alat)
               b(1) = (  1.000000  0.577350 -0.000000 )  
               b(2) = (  0.000000  1.154701  0.000000 )  
               b(3) = (  0.000000 -0.000000  0.619937 )  


     PseudoPot. # 1 for O  read from file:
     ../SSSP_1.3.0_PBE_efficiency/O.pbe-n-kjpaw_psl.0.1.UPF
     MD5 check sum: 0234752ac141de4415c5fc33072bef88
     Pseudo is Projector augmented-wave + core cor, Zval =  6.0
     Generated using "atomic" code by A. Dal Corso  v.5.0.99 svn rev. 10869
     Shape of augmentation charge: BESSEL
     Using radial grid of 1095 points,  4 beta functions with: 
                l(1) =   0
                l(2) =   0
                l(3) =   1
                l(4) =   1
     Q(r) pseudized with 0 coefficients 


     PseudoPot. # 2 for Zn read from file:
     ../SSSP_1.3.0_PBE_efficiency/Zn_pbe_v1.uspp.F.UPF
     MD5 check sum: df62231357ef9e81f77b2b3087fa5675
     Pseudo is Ultrasoft, Zval = 20.0
     Generated by new atomic code, or converted to UPF format
     Using radial grid of  943 points,  6 beta functions with: 
                l(1) =   0
                l(2) =   0
                l(3) =   1
                l(4) =   1
                l(5) =   2
                l(6) =   2
     Q(r) pseudized with  8 coefficients,  rinner =    1.100   1.100   1.100
                                                       1.100   1.100

     atomic species   valence    mass     pseudopotential
     O                 6.00    15.99940     O ( 1.00)
     Zn               20.00    65.38000     Zn( 1.00)

     12 Sym. Ops. (no inversion) found ( 6 have fractional translation)


                                    s                        frac. trans.

      isym =  1     identity                                     

 cryst.   s( 1) = (     1          0          0      )
                  (     0          1          0      )
                  (     0          0          1      )

 cart.    s( 1) = (  1.0000000  0.0000000  0.0000000 )
                  (  0.0000000  1.0000000  0.0000000 )
                  (  0.0000000  0.0000000  1.0000000 )


      isym =  2     180 deg rotation - cart. axis [0,0,1]        

 cryst.   s( 2) = (    -1          0          0      )    f =(  0.0000000 )
                  (     0         -1          0      )       (  0.0000000 )
                  (     0          0          1      )       (  0.5000000 )

 cart.    s( 2) = ( -1.0000000  0.0000000  0.0000000 )    f =(  0.0000000 )
                  (  0.0000000 -1.0000000  0.0000000 )       (  0.0000000 )
                  (  0.0000000  0.0000000  1.0000000 )       (  0.8065331 )


      isym =  3      60 deg rotation - cryst. axis [0,0,1]       

 cryst.   s( 3) = (     1          1          0      )    f =( -0.0000000 )
                  (    -1          0          0      )       (  0.0000000 )
                  (     0          0          1      )       (  0.5000000 )

 cart.    s( 3) = (  0.5000000 -0.8660254  0.0000000 )    f =( -0.0000000 )
                  (  0.8660254  0.5000000  0.0000000 )       (  0.0000000 )
                  (  0.0000000  0.0000000  1.0000000 )       (  0.8065331 )


      isym =  4      60 deg rotation - cryst. axis [0,0,-1]      

 cryst.   s( 4) = (     0         -1          0      )    f =(  0.0000000 )
                  (     1          1          0      )       (  0.0000000 )
                  (     0          0          1      )       (  0.5000000 )

 cart.    s( 4) = (  0.5000000  0.8660254  0.0000000 )    f =( -0.0000000 )
                  ( -0.8660254  0.5000000  0.0000000 )       (  0.0000000 )
                  (  0.0000000  0.0000000  1.0000000 )       (  0.8065331 )


      isym =  5     120 deg rotation - cryst. axis [0,0,1]       

 cryst.   s( 5) = (     0          1          0      )
                  (    -1         -1          0      )
                  (     0          0          1      )

 cart.    s( 5) = ( -0.5000000 -0.8660254  0.0000000 )
                  (  0.8660254 -0.5000000  0.0000000 )
                  (  0.0000000  0.0000000  1.0000000 )


      isym =  6     120 deg rotation - cryst. axis [0,0,-1]      

 cryst.   s( 6) = (    -1         -1          0      )
                  (     1          0          0      )
                  (     0          0          1      )

 cart.    s( 6) = ( -0.5000000  0.8660254  0.0000000 )
                  ( -0.8660254 -0.5000000  0.0000000 )
                  (  0.0000000  0.0000000  1.0000000 )


      isym =  7     inv. 180 deg rotation - cart. axis [0,1,0]   

 cryst.   s( 7) = (     1          0          0      )    f =( -0.0000000 )
                  (    -1         -1          0      )       (  0.0000000 )
                  (     0          0          1      )       (  0.5000000 )

 cart.    s( 7) = (  1.0000000  0.0000000  0.0000000 )    f =( -0.0000000 )
                  (  0.0000000 -1.0000000  0.0000000 )       (  0.0000000 )
                  (  0.0000000  0.0000000  1.0000000 )       (  0.8065331 )


      isym =  8     inv. 180 deg rotation - cart. axis [1,0,0]   

 cryst.   s( 8) = (    -1          0          0      )
                  (     1          1          0      )
                  (     0          0          1      )

 cart.    s( 8) = ( -1.0000000  0.0000000  0.0000000 )
                  (  0.0000000  1.0000000  0.0000000 )
                  (  0.0000000  0.0000000  1.0000000 )


      isym =  9     inv. 180 deg rotation - cryst. axis [1,-1,0] 

 cryst.   s( 9) = (     0          1          0      )    f =(  0.0000000 )
                  (     1          0          0      )       (  0.0000000 )
                  (     0          0          1      )       (  0.5000000 )

 cart.    s( 9) = ( -0.5000000  0.8660254  0.0000000 )    f =(  0.0000000 )
                  (  0.8660254  0.5000000  0.0000000 )       (  0.0000000 )
                  (  0.0000000  0.0000000  1.0000000 )       (  0.8065331 )


      isym = 10     inv. 180 deg rotation - cryst. axis [2,1,0]  

 cryst.   s(10) = (    -1         -1          0      )    f =(  0.0000000 )
                  (     0          1          0      )       (  0.0000000 )
                  (     0          0          1      )       (  0.5000000 )

 cart.    s(10) = ( -0.5000000 -0.8660254  0.0000000 )    f =( -0.0000000 )
                  ( -0.8660254  0.5000000  0.0000000 )       (  0.0000000 )
                  (  0.0000000  0.0000000  1.0000000 )       (  0.8065331 )


      isym = 11     inv. 180 deg rotation - cryst. axis [0,1,0]  

 cryst.   s(11) = (     1          1          0      )
                  (     0         -1          0      )
                  (     0          0          1      )

 cart.    s(11) = (  0.5000000  0.8660254  0.0000000 )
                  (  0.8660254 -0.5000000  0.0000000 )
                  (  0.0000000  0.0000000  1.0000000 )


      isym = 12     inv. 180 deg rotation - cryst. axis [1,1,0]  

 cryst.   s(12) = (     0         -1          0      )
                  (    -1          0          0      )
                  (     0          0          1      )

 cart.    s(12) = (  0.5000000 -0.8660254  0.0000000 )
                  ( -0.8660254 -0.5000000  0.0000000 )
                  (  0.0000000  0.0000000  1.0000000 )


   Cartesian axes

     site n.     atom                  positions (alat units)
         1        Zn     tau(   1) = (   0.5000000   0.2886751   0.8074875  )
         2        Zn     tau(   2) = (  -0.0000000   0.5773503   0.0009545  )
         3        O      tau(   3) = (   0.5000000   0.2886751   1.4190438  )
         4        O      tau(   4) = (  -0.0000000   0.5773503   0.6125107  )

   Crystallographic axes

     site n.     atom                  positions (cryst. coord.)
         1        Zn     tau(   1) = (  0.6666667  0.3333333  0.5005917  )
         2        Zn     tau(   2) = (  0.3333333  0.6666667  0.0005917  )
         3        O      tau(   3) = (  0.6666667  0.3333333  0.8797183  )
         4        O      tau(   4) = (  0.3333333  0.6666667  0.3797183  )

     number of k points=    95  Marzari-Vanderbilt smearing, width (Ry)=  0.0147
                       cart. coord. in units 2pi/alat
        k(    1) = (   0.0000000   0.0000000   0.0000000), wk =   0.0017361
        k(    2) = (   0.0000000   0.0000000   0.0774922), wk =   0.0034722
        k(    3) = (   0.0000000   0.0000000   0.1549843), wk =   0.0034722
        k(    4) = (   0.0000000   0.0000000   0.2324765), wk =   0.0034722
        k(    5) = (   0.0000000   0.0000000  -0.3099687), wk =   0.0017361
        k(    6) = (   0.0000000   0.0962250   0.0000000), wk =   0.0104167
        k(    7) = (   0.0000000   0.0962250   0.0774922), wk =   0.0208333
        k(    8) = (   0.0000000   0.0962250   0.1549843), wk =   0.0208333
        k(    9) = (   0.0000000   0.0962250   0.2324765), wk =   0.0208333
        k(   10) = (   0.0000000   0.0962250  -0.3099687), wk =   0.0104167
        k(   11) = (   0.0000000   0.1924501   0.0000000), wk =   0.0104167
        k(   12) = (   0.0000000   0.1924501   0.0774922), wk =   0.0208333
        k(   13) = (   0.0000000   0.1924501   0.1549843), wk =   0.0208333
        k(   14) = (   0.0000000   0.1924501   0.2324765), wk =   0.0208333
        k(   15) = (   0.0000000   0.1924501  -0.3099687), wk =   0.0104167
        k(   16) = (   0.0000000   0.2886751   0.0000000), wk =   0.0104167
        k(   17) = (   0.0000000   0.2886751   0.0774922), wk =   0.0208333
        k(   18) = (   0.0000000   0.2886751   0.1549843), wk =   0.0208333
        k(   19) = (   0.0000000   0.2886751   0.2324765), wk =   0.0208333
        k(   20) = (   0.0000000   0.2886751  -0.3099687), wk =   0.0104167
        k(   21) = (   0.0000000   0.3849002   0.0000000), wk =   0.0104167
        k(   22) = (   0.0000000   0.3849002   0.0774922), wk =   0.0208333
        k(   23) = (   0.0000000   0.3849002   0.1549843), wk =   0.0208333
        k(   24) = (   0.0000000   0.3849002   0.2324765), wk =   0.0208333
        k(   25) = (   0.0000000   0.3849002  -0.3099687), wk =   0.0104167
        k(   26) = (   0.0000000   0.4811252   0.0000000), wk =   0.0104167
        k(   27) = (   0.0000000   0.4811252   0.0774922), wk =   0.0208333
        k(   28) = (   0.0000000   0.4811252   0.1549843), wk =   0.0208333
        k(   29) = (   0.0000000   0.4811252   0.2324765), wk =   0.0208333
        k(   30) = (   0.0000000   0.4811252  -0.3099687), wk =   0.0104167
        k(   31) = (   0.0000000  -0.5773503   0.0000000), wk =   0.0052083
        k(   32) = (   0.0000000  -0.5773503   0.0774922), wk =   0.0104167
        k(   33) = (   0.0000000  -0.5773503   0.1549843), wk =   0.0104167
        k(   34) = (   0.0000000  -0.5773503   0.2324765), wk =   0.0104167
        k(   35) = (   0.0000000  -0.5773503  -0.3099687), wk =   0.0052083
        k(   36) = (   0.0833333   0.1443376   0.0000000), wk =   0.0104167
        k(   37) = (   0.0833333   0.1443376   0.0774922), wk =   0.0208333
        k(   38) = (   0.0833333   0.1443376   0.1549843), wk =   0.0208333
        k(   39) = (   0.0833333   0.1443376   0.2324765), wk =   0.0208333
        k(   40) = (   0.0833333   0.1443376  -0.3099687), wk =   0.0104167
        k(   41) = (   0.0833333   0.2405626   0.0000000), wk =   0.0208333
        k(   42) = (   0.0833333   0.2405626   0.0774922), wk =   0.0416667
        k(   43) = (   0.0833333   0.2405626   0.1549843), wk =   0.0416667
        k(   44) = (   0.0833333   0.2405626   0.2324765), wk =   0.0416667
        k(   45) = (   0.0833333   0.2405626  -0.3099687), wk =   0.0208333
        k(   46) = (   0.0833333   0.3367877   0.0000000), wk =   0.0208333
        k(   47) = (   0.0833333   0.3367877   0.0774922), wk =   0.0416667
        k(   48) = (   0.0833333   0.3367877   0.1549843), wk =   0.0416667
        k(   49) = (   0.0833333   0.3367877   0.2324765), wk =   0.0416667
        k(   50) = (   0.0833333   0.3367877  -0.3099687), wk =   0.0208333
        k(   51) = (   0.0833333   0.4330127   0.0000000), wk =   0.0208333
        k(   52) = (   0.0833333   0.4330127   0.0774922), wk =   0.0416667
        k(   53) = (   0.0833333   0.4330127   0.1549843), wk =   0.0416667
        k(   54) = (   0.0833333   0.4330127   0.2324765), wk =   0.0416667
        k(   55) = (   0.0833333   0.4330127  -0.3099687), wk =   0.0208333
        k(   56) = (   0.0833333   0.5292377   0.0000000), wk =   0.0208333
        k(   57) = (   0.0833333   0.5292377   0.0774922), wk =   0.0416667
        k(   58) = (   0.0833333   0.5292377   0.1549843), wk =   0.0416667
        k(   59) = (   0.0833333   0.5292377   0.2324765), wk =   0.0416667
        k(   60) = (   0.0833333   0.5292377  -0.3099687), wk =   0.0208333
        k(   61) = (   0.1666667   0.2886751   0.0000000), wk =   0.0104167
        k(   62) = (   0.1666667   0.2886751   0.0774922), wk =   0.0208333
        k(   63) = (   0.1666667   0.2886751   0.1549843), wk =   0.0208333
        k(   64) = (   0.1666667   0.2886751   0.2324765), wk =   0.0208333
        k(   65) = (   0.1666667   0.2886751  -0.3099687), wk =   0.0104167
        k(   66) = (   0.1666667   0.3849002   0.0000000), wk =   0.0208333
        k(   67) = (   0.1666667   0.3849002   0.0774922), wk =   0.0416667
        k(   68) = (   0.1666667   0.3849002   0.1549843), wk =   0.0416667
        k(   69) = (   0.1666667   0.3849002   0.2324765), wk =   0.0416667
        k(   70) = (   0.1666667   0.3849002  -0.3099687), wk =   0.0208333
        k(   71) = (   0.1666667   0.4811252   0.0000000), wk =   0.0208333
        k(   72) = (   0.1666667   0.4811252   0.0774922), wk =   0.0416667
        k(   73) = (   0.1666667   0.4811252   0.1549843), wk =   0.0416667
        k(   74) = (   0.1666667   0.4811252   0.2324765), wk =   0.0416667
        k(   75) = (   0.1666667   0.4811252  -0.3099687), wk =   0.0208333
        k(   76) = (   0.1666667   0.5773503   0.0000000), wk =   0.0104167
        k(   77) = (   0.1666667   0.5773503   0.0774922), wk =   0.0208333
        k(   78) = (   0.1666667   0.5773503   0.1549843), wk =   0.0208333
        k(   79) = (   0.1666667   0.5773503   0.2324765), wk =   0.0208333
        k(   80) = (   0.1666667   0.5773503  -0.3099687), wk =   0.0104167
        k(   81) = (   0.2500000   0.4330127   0.0000000), wk =   0.0104167
        k(   82) = (   0.2500000   0.4330127   0.0774922), wk =   0.0208333
        k(   83) = (   0.2500000   0.4330127   0.1549843), wk =   0.0208333
        k(   84) = (   0.2500000   0.4330127   0.2324765), wk =   0.0208333
        k(   85) = (   0.2500000   0.4330127  -0.3099687), wk =   0.0104167
        k(   86) = (   0.2500000   0.5292377   0.0000000), wk =   0.0208333
        k(   87) = (   0.2500000   0.5292377   0.0774922), wk =   0.0416667
        k(   88) = (   0.2500000   0.5292377   0.1549843), wk =   0.0416667
        k(   89) = (   0.2500000   0.5292377   0.2324765), wk =   0.0416667
        k(   90) = (   0.2500000   0.5292377  -0.3099687), wk =   0.0208333
        k(   91) = (   0.3333333   0.5773503   0.0000000), wk =   0.0034722
        k(   92) = (   0.3333333   0.5773503   0.0774922), wk =   0.0069444
        k(   93) = (   0.3333333   0.5773503   0.1549843), wk =   0.0069444
        k(   94) = (   0.3333333   0.5773503   0.2324765), wk =   0.0069444
        k(   95) = (   0.3333333   0.5773503  -0.3099687), wk =   0.0034722

                       cryst. coord.
        k(    1) = (   0.0000000   0.0000000   0.0000000), wk =   0.0017361
        k(    2) = (   0.0000000   0.0000000   0.1250000), wk =   0.0034722
        k(    3) = (   0.0000000   0.0000000   0.2500000), wk =   0.0034722
        k(    4) = (   0.0000000   0.0000000   0.3750000), wk =   0.0034722
        k(    5) = (   0.0000000   0.0000000  -0.5000000), wk =   0.0017361
        k(    6) = (   0.0000000   0.0833333   0.0000000), wk =   0.0104167
        k(    7) = (   0.0000000   0.0833333   0.1250000), wk =   0.0208333
        k(    8) = (   0.0000000   0.0833333   0.2500000), wk =   0.0208333
        k(    9) = (   0.0000000   0.0833333   0.3750000), wk =   0.0208333
        k(   10) = (   0.0000000   0.0833333  -0.5000000), wk =   0.0104167
        k(   11) = (   0.0000000   0.1666667   0.0000000), wk =   0.0104167
        k(   12) = (   0.0000000   0.1666667   0.1250000), wk =   0.0208333
        k(   13) = (   0.0000000   0.1666667   0.2500000), wk =   0.0208333
        k(   14) = (   0.0000000   0.1666667   0.3750000), wk =   0.0208333
        k(   15) = (   0.0000000   0.1666667  -0.5000000), wk =   0.0104167
        k(   16) = (   0.0000000   0.2500000   0.0000000), wk =   0.0104167
        k(   17) = (   0.0000000   0.2500000   0.1250000), wk =   0.0208333
        k(   18) = (   0.0000000   0.2500000   0.2500000), wk =   0.0208333
        k(   19) = (   0.0000000   0.2500000   0.3750000), wk =   0.0208333
        k(   20) = (   0.0000000   0.2500000  -0.5000000), wk =   0.0104167
        k(   21) = (   0.0000000   0.3333333   0.0000000), wk =   0.0104167
        k(   22) = (   0.0000000   0.3333333   0.1250000), wk =   0.0208333
        k(   23) = (   0.0000000   0.3333333   0.2500000), wk =   0.0208333
        k(   24) = (   0.0000000   0.3333333   0.3750000), wk =   0.0208333
        k(   25) = (   0.0000000   0.3333333  -0.5000000), wk =   0.0104167
        k(   26) = (   0.0000000   0.4166667   0.0000000), wk =   0.0104167
        k(   27) = (   0.0000000   0.4166667   0.1250000), wk =   0.0208333
        k(   28) = (   0.0000000   0.4166667   0.2500000), wk =   0.0208333
        k(   29) = (   0.0000000   0.4166667   0.3750000), wk =   0.0208333
        k(   30) = (   0.0000000   0.4166667  -0.5000000), wk =   0.0104167
        k(   31) = (   0.0000000  -0.5000000   0.0000000), wk =   0.0052083
        k(   32) = (   0.0000000  -0.5000000   0.1250000), wk =   0.0104167
        k(   33) = (   0.0000000  -0.5000000   0.2500000), wk =   0.0104167
        k(   34) = (   0.0000000  -0.5000000   0.3750000), wk =   0.0104167
        k(   35) = (   0.0000000  -0.5000000  -0.5000000), wk =   0.0052083
        k(   36) = (   0.0833333   0.0833333   0.0000000), wk =   0.0104167
        k(   37) = (   0.0833333   0.0833333   0.1250000), wk =   0.0208333
        k(   38) = (   0.0833333   0.0833333   0.2500000), wk =   0.0208333
        k(   39) = (   0.0833333   0.0833333   0.3750000), wk =   0.0208333
        k(   40) = (   0.0833333   0.0833333  -0.5000000), wk =   0.0104167
        k(   41) = (   0.0833333   0.1666667   0.0000000), wk =   0.0208333
        k(   42) = (   0.0833333   0.1666667   0.1250000), wk =   0.0416667
        k(   43) = (   0.0833333   0.1666667   0.2500000), wk =   0.0416667
        k(   44) = (   0.0833333   0.1666667   0.3750000), wk =   0.0416667
        k(   45) = (   0.0833333   0.1666667  -0.5000000), wk =   0.0208333
        k(   46) = (   0.0833333   0.2500000   0.0000000), wk =   0.0208333
        k(   47) = (   0.0833333   0.2500000   0.1250000), wk =   0.0416667
        k(   48) = (   0.0833333   0.2500000   0.2500000), wk =   0.0416667
        k(   49) = (   0.0833333   0.2500000   0.3750000), wk =   0.0416667
        k(   50) = (   0.0833333   0.2500000  -0.5000000), wk =   0.0208333
        k(   51) = (   0.0833333   0.3333333   0.0000000), wk =   0.0208333
        k(   52) = (   0.0833333   0.3333333   0.1250000), wk =   0.0416667
        k(   53) = (   0.0833333   0.3333333   0.2500000), wk =   0.0416667
        k(   54) = (   0.0833333   0.3333333   0.3750000), wk =   0.0416667
        k(   55) = (   0.0833333   0.3333333  -0.5000000), wk =   0.0208333
        k(   56) = (   0.0833333   0.4166667   0.0000000), wk =   0.0208333
        k(   57) = (   0.0833333   0.4166667   0.1250000), wk =   0.0416667
        k(   58) = (   0.0833333   0.4166667   0.2500000), wk =   0.0416667
        k(   59) = (   0.0833333   0.4166667   0.3750000), wk =   0.0416667
        k(   60) = (   0.0833333   0.4166667  -0.5000000), wk =   0.0208333
        k(   61) = (   0.1666667   0.1666667   0.0000000), wk =   0.0104167
        k(   62) = (   0.1666667   0.1666667   0.1250000), wk =   0.0208333
        k(   63) = (   0.1666667   0.1666667   0.2500000), wk =   0.0208333
        k(   64) = (   0.1666667   0.1666667   0.3750000), wk =   0.0208333
        k(   65) = (   0.1666667   0.1666667  -0.5000000), wk =   0.0104167
        k(   66) = (   0.1666667   0.2500000   0.0000000), wk =   0.0208333
        k(   67) = (   0.1666667   0.2500000   0.1250000), wk =   0.0416667
        k(   68) = (   0.1666667   0.2500000   0.2500000), wk =   0.0416667
        k(   69) = (   0.1666667   0.2500000   0.3750000), wk =   0.0416667
        k(   70) = (   0.1666667   0.2500000  -0.5000000), wk =   0.0208333
        k(   71) = (   0.1666667   0.3333333   0.0000000), wk =   0.0208333
        k(   72) = (   0.1666667   0.3333333   0.1250000), wk =   0.0416667
        k(   73) = (   0.1666667   0.3333333   0.2500000), wk =   0.0416667
        k(   74) = (   0.1666667   0.3333333   0.3750000), wk =   0.0416667
        k(   75) = (   0.1666667   0.3333333  -0.5000000), wk =   0.0208333
        k(   76) = (   0.1666667   0.4166667   0.0000000), wk =   0.0104167
        k(   77) = (   0.1666667   0.4166667   0.1250000), wk =   0.0208333
        k(   78) = (   0.1666667   0.4166667   0.2500000), wk =   0.0208333
        k(   79) = (   0.1666667   0.4166667   0.3750000), wk =   0.0208333
        k(   80) = (   0.1666667   0.4166667  -0.5000000), wk =   0.0104167
        k(   81) = (   0.2500000   0.2500000   0.0000000), wk =   0.0104167
        k(   82) = (   0.2500000   0.2500000   0.1250000), wk =   0.0208333
        k(   83) = (   0.2500000   0.2500000   0.2500000), wk =   0.0208333
        k(   84) = (   0.2500000   0.2500000   0.3750000), wk =   0.0208333
        k(   85) = (   0.2500000   0.2500000  -0.5000000), wk =   0.0104167
        k(   86) = (   0.2500000   0.3333333   0.0000000), wk =   0.0208333
        k(   87) = (   0.2500000   0.3333333   0.1250000), wk =   0.0416667
        k(   88) = (   0.2500000   0.3333333   0.2500000), wk =   0.0416667
        k(   89) = (   0.2500000   0.3333333   0.3750000), wk =   0.0416667
        k(   90) = (   0.2500000   0.3333333  -0.5000000), wk =   0.0208333
        k(   91) = (   0.3333333   0.3333333   0.0000000), wk =   0.0034722
        k(   92) = (   0.3333333   0.3333333   0.1250000), wk =   0.0069444
        k(   93) = (   0.3333333   0.3333333   0.2500000), wk =   0.0069444
        k(   94) = (   0.3333333   0.3333333   0.3750000), wk =   0.0069444
        k(   95) = (   0.3333333   0.3333333  -0.5000000), wk =   0.0034722

     Dense  grid:    48515 G-vectors     FFT dimensions: (  45,  45,  72)

     Smooth grid:    17225 G-vectors     FFT dimensions: (  30,  30,  48)

     Dynamical RAM for                 wfc:       1.02 MB

     Dynamical RAM for     wfc (w. buffer):      97.54 MB

     Dynamical RAM for           str. fact:       1.48 MB

     Dynamical RAM for           local pot:       0.00 MB

     Dynamical RAM for          nlocal pot:       1.70 MB

     Dynamical RAM for                qrad:       3.21 MB

     Dynamical RAM for          rho,v,vnew:       5.56 MB

     Dynamical RAM for               rhoin:       1.85 MB

     Dynamical RAM for            rho*nmix:      11.84 MB

     Dynamical RAM for           G-vectors:       2.91 MB

     Dynamical RAM for          h,s,v(r/c):       0.18 MB

     Dynamical RAM for          <psi|beta>:       0.02 MB

     Dynamical RAM for                 psi:       2.03 MB

     Dynamical RAM for                hpsi:       2.03 MB

     Dynamical RAM for                spsi:       2.03 MB

     Dynamical RAM for      wfcinit/wfcrot:       2.26 MB

     Dynamical RAM for           addusdens:     139.17 MB

     Dynamical RAM for          addusforce:     141.03 MB

     Dynamical RAM for         addusstress:     148.80 MB

     Estimated static dynamical RAM per process >     122.04 MB

     Estimated max dynamical RAM per process >     282.68 MB

     Check: negative core charge=   -0.000003

     Initial potential from superposition of free atoms

     starting charge      51.9997, renormalised to      52.0000
     Starting wfcs are   34 randomized atomic wfcs
     Checking if some PAW data can be deallocated... 

     total cpu time spent up to now is        8.0 secs

     Self-consistent Calculation

     iteration #  1     ecut=    50.00 Ry     beta= 0.40
     Davidson diagonalization with overlap

---- Real-time Memory Report at c_bands before calling an iterative solver
           194 MiB given to the printing process from OS
             0 MiB allocation reported by mallinfo(arena+hblkhd)
          4613 MiB available memory on the node where the printing process lives
------------------
     ethr =  1.00E-02,  avg # of iterations =  3.0

     total cpu time spent up to now is       33.4 secs

     total energy              =   -1006.29204730 Ry
     estimated scf accuracy    <       0.90405248 Ry

     iteration #  2     ecut=    50.00 Ry     beta= 0.40
     Davidson diagonalization with overlap

---- Real-time Memory Report at c_bands before calling an iterative solver
           325 MiB given to the printing process from OS
             0 MiB allocation reported by mallinfo(arena+hblkhd)
          4605 MiB available memory on the node where the printing process lives
------------------
     ethr =  1.74E-03,  avg # of iterations =  2.0

     total cpu time spent up to now is       55.2 secs

     WARNING: integrated charge=    52.00057062, expected=    52.00000000

     total energy              =   -1006.54122415 Ry
     estimated scf accuracy    <       0.14858042 Ry

     iteration #  3     ecut=    50.00 Ry     beta= 0.40
     Davidson diagonalization with overlap

---- Real-time Memory Report at c_bands before calling an iterative solver
           325 MiB given to the printing process from OS
             0 MiB allocation reported by mallinfo(arena+hblkhd)
          4603 MiB available memory on the node where the printing process lives
------------------
     ethr =  2.86E-04,  avg # of iterations =  2.1

     total cpu time spent up to now is       74.3 secs

     WARNING: integrated charge=    52.00054276, expected=    52.00000000

     total energy              =   -1006.56273631 Ry
     estimated scf accuracy    <       0.01047345 Ry

     iteration #  4     ecut=    50.00 Ry     beta= 0.40
     Davidson diagonalization with overlap

---- Real-time Memory Report at c_bands before calling an iterative solver
           326 MiB given to the printing process from OS
             0 MiB allocation reported by mallinfo(arena+hblkhd)
          4601 MiB available memory on the node where the printing process lives
------------------
     ethr =  2.01E-05,  avg # of iterations =  3.6

     total cpu time spent up to now is       97.7 secs

     WARNING: integrated charge=    52.00044379, expected=    52.00000000

     total energy              =   -1006.56325705 Ry
     estimated scf accuracy    <       0.00149120 Ry

     iteration #  5     ecut=    50.00 Ry     beta= 0.40
     Davidson diagonalization with overlap

---- Real-time Memory Report at c_bands before calling an iterative solver
           326 MiB given to the printing process from OS
             0 MiB allocation reported by mallinfo(arena+hblkhd)
          4601 MiB available memory on the node where the printing process lives
------------------
     ethr =  2.87E-06,  avg # of iterations =  3.1

     total cpu time spent up to now is      120.8 secs

     WARNING: integrated charge=    52.00042907, expected=    52.00000000

     total energy              =   -1006.56331809 Ry
     estimated scf accuracy    <       0.00004804 Ry

     iteration #  6     ecut=    50.00 Ry     beta= 0.40
     Davidson diagonalization with overlap

---- Real-time Memory Report at c_bands before calling an iterative solver
           327 MiB given to the printing process from OS
             0 MiB allocation reported by mallinfo(arena+hblkhd)
          4599 MiB available memory on the node where the printing process lives
------------------
     ethr =  9.24E-08,  avg # of iterations =  3.0

     total cpu time spent up to now is      154.2 secs

     WARNING: integrated charge=    52.00042595, expected=    52.00000000

     total energy              =   -1006.56331292 Ry
     estimated scf accuracy    <       0.00006113 Ry

     iteration #  7     ecut=    50.00 Ry     beta= 0.40
     Davidson diagonalization with overlap

---- Real-time Memory Report at c_bands before calling an iterative solver
           328 MiB given to the printing process from OS
             0 MiB allocation reported by mallinfo(arena+hblkhd)
          4597 MiB available memory on the node where the printing process lives
------------------
     ethr =  9.24E-08,  avg # of iterations =  2.0

     total cpu time spent up to now is      175.3 secs

     WARNING: integrated charge=    52.00041524, expected=    52.00000000

     total energy              =   -1006.56334248 Ry
     estimated scf accuracy    <       0.00000017 Ry

     iteration #  8     ecut=    50.00 Ry     beta= 0.40
     Davidson diagonalization with overlap

---- Real-time Memory Report at c_bands before calling an iterative solver
           328 MiB given to the printing process from OS
             0 MiB allocation reported by mallinfo(arena+hblkhd)
          4597 MiB available memory on the node where the printing process lives
------------------
     ethr =  3.26E-10,  avg # of iterations =  3.7

     total cpu time spent up to now is      201.3 secs

     WARNING: integrated charge=    52.00041264, expected=    52.00000000

     total energy              =   -1006.56334221 Ry
     estimated scf accuracy    <       0.00000033 Ry

     iteration #  9     ecut=    50.00 Ry     beta= 0.40
     Davidson diagonalization with overlap

---- Real-time Memory Report at c_bands before calling an iterative solver
           329 MiB given to the printing process from OS
             0 MiB allocation reported by mallinfo(arena+hblkhd)
          4596 MiB available memory on the node where the printing process lives
------------------
     ethr =  3.26E-10,  avg # of iterations =  2.0

     total cpu time spent up to now is      221.3 secs

     WARNING: integrated charge=    52.00041237, expected=    52.00000000

     total energy              =   -1006.56334179 Ry
     estimated scf accuracy    <       0.00000008 Ry

     iteration # 10     ecut=    50.00 Ry     beta= 0.40
     Davidson diagonalization with overlap

---- Real-time Memory Report at c_bands before calling an iterative solver
           329 MiB given to the printing process from OS
             0 MiB allocation reported by mallinfo(arena+hblkhd)
          4572 MiB available memory on the node where the printing process lives
------------------
     ethr =  1.55E-10,  avg # of iterations =  2.0

     total cpu time spent up to now is      243.7 secs

     End of self-consistent calculation

          k = 0.0000 0.0000 0.0000 (  2165 PWs)   bands (ev):

  -116.2855-116.2855 -70.4809 -70.4788 -70.4763 -70.4763 -70.4759 -70.4759
   -10.1872  -9.6213   1.8018   1.8018   1.8326   1.9584   1.9584   2.2182
     2.6631   2.6631   2.8231   2.8231   3.0934   6.3875   6.3875   7.0017
     7.0572   7.0572   7.6804  11.8645  14.8790  19.3965  19.3965

     occupation numbers 
     1.0000   1.0000   1.0000   1.0000   1.0000   1.0000   1.0000   1.0000
     1.0000   1.0000   1.0000   1.0000   1.0000   1.0000   1.0000   1.0000
     1.0000   1.0000   1.0000   1.0000   1.0000   1.0000   1.0000   1.0020
     1.0061   1.0061   0.1503   0.0000   0.0000   0.0000   0.0000

          k = 0.0000 0.0000 0.0775 (  2141 PWs)   bands (ev):

  -116.2855-116.2854 -70.4807 -70.4788 -70.4763 -70.4763 -70.4758 -70.4758
   -10.1666  -9.6438   1.8050   1.8050   1.8150   1.9494   1.9494   2.0935
     2.6715   2.6715   2.8196   2.8196   3.3103   6.4136   6.4136   6.6098
     7.0324   7.0324   8.1153  11.7422  14.9920  19.4004  19.4004

     occupation numbers 
     1.0000   1.0000   1.0000   1.0000   1.0000   1.0000   1.0000   1.0000
     1.0000   1.0000   1.0000   1.0000   1.0000   1.0000   1.0000   1.0000
     1.0000   1.0000   1.0000   1.0000   1.0000   1.0000   1.0000   1.0000
     1.0038   1.0038   0.0000   0.0000   0.0000   0.0000   0.0000

          k = 0.0000 0.0000 0.1550 (  2141 PWs)   bands (ev):

  -116.2855-116.2854 -70.4805 -70.4792 -70.4761 -70.4761 -70.4759 -70.4759
   -10.1074  -9.7073   1.7718   1.8153   1.8153   1.9006   1.9252   1.9252
     2.6943   2.6943   2.8082   2.8082   3.7691   6.0349   6.4877   6.4877
     6.9614   6.9614   8.8046  11.3967  15.3279  18.7624  19.4271

     occupation numbers 
     1.0000   1.0000   1.0000   1.0000   1.0000   1.0000   1.0000   1.0000
     1.0000   1.0000   1.0000   1.0000   1.0000   1.0000   1.0000   1.0000
     1.0000   1.0000   1.0000   1.0000   1.0000   1.0000   1.0000   1.0000
     1.0008   1.0008   0.0000   0.0000   0.0000   0.0000   0.0000

          k = 0.0000 0.0000 0.2325 (  2135 PWs)   bands (ev):

  -116.2855-116.2854 -70.4802 -70.4794 -70.4761 -70.4761 -70.4760 -70.4760
   -10.0179  -9.8013   1.7284   1.7696   1.8339   1.8339   1.8930   1.8930
     2.7258   2.7258   2.7877   2.7877   4.3114   5.4572   6.5979   6.5979
     6.8543   6.8543   9.5297  10.8766  15.8844  17.6419  19.5074

     occupation numbers 
     1.0000   1.0000   1.0000   1.0000   1.0000   1.0000   1.0000   1.0000
     1.0000   1.0000   1.0000   1.0000   1.0000   1.0000   1.0000   1.0000
     1.0000   1.0000   1.0000   1.0000   1.0000   1.0000   1.0000   1.0000
     1.0000   1.0000   0.0000   0.0000   0.0000   0.0000   0.0000

          k = 0.0000 0.0000-0.3100 (  2112 PWs)   bands (ev):

  -116.2854-116.2854 -70.4796 -70.4796 -70.4760 -70.4760 -70.4760 -70.4760
    -9.9105  -9.9105   1.7178   1.7178   1.8607   1.8607   1.8607   1.8607
     2.7591   2.7591   2.7591   2.7591   4.8815   4.8815   6.7267   6.7268
     6.7268   6.7268  10.2367  10.2367  16.6612  16.6612  19.6632

     occupation numbers 
     1.0000   1.0000   1.0000   1.0000   1.0000   1.0000   1.0000   1.0000
     1.0000   1.0000   1.0000   1.0000   1.0000   1.0000   1.0000   1.0000
     1.0000   1.0000   1.0000   1.0000   1.0000   1.0000   1.0000   1.0000
     1.0000   1.0000   0.0000   0.0000   0.0000   0.0000   0.0000

          k = 0.0000 0.0962 0.0000 (  2149 PWs)   bands (ev):

  -116.2855-116.2854 -70.4808 -70.4788 -70.4764 -70.4763 -70.4760 -70.4759
   -10.1566  -9.6076   1.7742   1.8201   1.8541   1.9594   1.9843   2.2476
     2.6514   2.6614   2.8257   2.8644   3.0913   6.1495   6.3070   6.5563
     6.9630   7.0149   8.2628  12.1323  14.8898  18.6997  19.4447

     occupation numbers 
     1.0000   1.0000   1.0000   1.0000   1.0000   1.0000   1.0000   1.0000
     1.0000   1.0000   1.0000   1.0000   1.0000   1.0000   1.0000   1.0000
     1.0000   1.0000   1.0000   1.0000   1.0000   1.0000   1.0000   1.0000
     1.0008   1.0027   0.0000   0.0000   0.0000   0.0000   0.0000

          k = 0.0000 0.0962 0.0775 (  2154 PWs)   bands (ev):

  -116.2855-116.2854 -70.4807 -70.4790 -70.4763 -70.4763 -70.4760 -70.4759
   -10.1365  -9.6293   1.7659   1.8237   1.8478   1.9444   1.9750   2.1265
     2.6610   2.6697   2.8217   2.8402   3.3278   6.1714   6.3347   6.3587
     6.9333   6.9887   8.5147  12.0000  15.0039  18.7145  19.4498

     occupation numbers 
     1.0000   1.0000   1.0000   1.0000   1.0000   1.0000   1.0000   1.0000
     1.0000   1.0000   1.0000   1.0000   1.0000   1.0000   1.0000   1.0000
     1.0000   1.0000   1.0000   1.0000   1.0000   1.0000   1.0000   1.0000
     1.0004   1.0015   0.0000   0.0000   0.0000   0.0000   0.0000

          k = 0.0000 0.0962 0.1550 (  2150 PWs)   bands (ev):

  -116.2855-116.2854 -70.4805 -70.4791 -70.4763 -70.4762 -70.4761 -70.4760
   -10.0790  -9.6907   1.7371   1.8349   1.8398   1.8757   1.9500   1.9754
     2.6868   2.6925   2.8093   2.8180   3.7931   5.9047   6.2763   6.4131
     6.8440   6.9136   9.0781  11.6326  15.3388  18.5683  19.0013

     occupation numbers 
     1.0000   1.0000   1.0000   1.0000   1.0000   1.0000   1.0000   1.0000
     1.0000   1.0000   1.0000   1.0000   1.0000   1.0000   1.0000   1.0000
     1.0000   1.0000   1.0000   1.0000   1.0000   1.0000   1.0000   1.0000
     1.0000   1.0002   0.0000   0.0000   0.0000   0.0000   0.0000

          k = 0.0000 0.0962 0.2325 (  2138 PWs)   bands (ev):

  -116.2855-116.2854 -70.4801 -70.4794 -70.4762 -70.4761 -70.4761 -70.4760
    -9.9918  -9.7817   1.7025   1.7522   1.8547   1.8596   1.9167   1.9200
     2.7222   2.7243   2.7877   2.7924   4.3274   5.4058   6.4005   6.5296
     6.7097   6.8005   9.7527  11.0927  15.8864  17.5924  19.0210

     occupation numbers 
     1.0000   1.0000   1.0000   1.0000   1.0000   1.0000   1.0000   1.0000
     1.0000   1.0000   1.0000   1.0000   1.0000   1.0000   1.0000   1.0000
     1.0000   1.0000   1.0000   1.0000   1.0000   1.0000   1.0000   1.0000
     1.0000   1.0000   0.0000   0.0000   0.0000   0.0000   0.0000

          k = 0.0000 0.0962-0.3100 (  2126 PWs)   bands (ev):

  -116.2854-116.2854 -70.4797 -70.4797 -70.4761 -70.4761 -70.4761 -70.4761
    -9.8876  -9.8876   1.6977   1.6977   1.8829   1.8829   1.8843   1.8843
     2.7581   2.7581   2.7595   2.7595   4.8742   4.8742   6.5535   6.5535
     6.6658   6.6658  10.4456  10.4456  16.6442  16.6442  19.2152

     occupation numbers 
     1.0000   1.0000   1.0000   1.0000   1.0000   1.0000   1.0000   1.0000
     1.0000   1.0000   1.0000   1.0000   1.0000   1.0000   1.0000   1.0000
     1.0000   1.0000   1.0000   1.0000   1.0000   1.0000   1.0000   1.0000
     1.0000   1.0000   0.0000   0.0000   0.0000   0.0000   0.0000

          k = 0.0000 0.1925 0.0000 (  2149 PWs)   bands (ev):

  -116.2855-116.2854 -70.4807 -70.4789 -70.4765 -70.4764 -70.4762 -70.4759
   -10.0708  -9.5712   1.7161   1.8681   1.8905   1.9777   2.0585   2.3304
     2.6199   2.6626   2.8318   2.9751   3.1029   5.5282   5.9549   6.0891
     6.8420   6.8954   9.1321  12.7836  14.9200  17.4605  18.9435

     occupation numbers 
     1.0000   1.0000   1.0000   1.0000   1.0000   1.0000   1.0000   1.0000
     1.0000   1.0000   1.0000   1.0000   1.0000   1.0000   1.0000   1.0000
     1.0000   1.0000   1.0000   1.0000   1.0000   1.0000   1.0000   1.0000
     1.0000   1.0002   0.0000   0.0000   0.0000   0.0000   0.0000

          k = 0.0000 0.1925 0.0775 (  2151 PWs)   bands (ev):

  -116.2855-116.2854 -70.4806 -70.4790 -70.4765 -70.4764 -70.4762 -70.4760
   -10.0523  -9.5907   1.7053   1.8728   1.8793   1.9608   2.0483   2.2128
     2.6342   2.6705   2.8269   2.8907   3.3914   5.5472   5.8779   6.1208
     6.8016   6.8656   9.2843  12.6218  15.0345  17.4863  18.8680

     occupation numbers 
     1.0000   1.0000   1.0000   1.0000   1.0000   1.0000   1.0000   1.0000
     1.0000   1.0000   1.0000   1.0000   1.0000   1.0000   1.0000   1.0000
     1.0000   1.0000   1.0000   1.0000   1.0000   1.0000   1.0000   1.0000
     1.0000   1.0001   0.0000   0.0000   0.0000   0.0000   0.0000

          k = 0.0000 0.1925 0.1550 (  2142 PWs)   bands (ev):

  -116.2855-116.2854 -70.4804 -70.4792 -70.4765 -70.4763 -70.4762 -70.4760
    -9.9993  -9.6460   1.6770   1.8238   1.8871   1.9253   2.0207   2.0591
     2.6690   2.6923   2.8123   2.8448   3.8573   5.4853   5.8109   6.2107
     6.6680   6.7803   9.6977  12.1945  15.3534  17.5008  18.5849

     occupation numbers 
     1.0000   1.0000   1.0000   1.0000   1.0000   1.0000   1.0000   1.0000
     1.0000   1.0000   1.0000   1.0000   1.0000   1.0000   1.0000   1.0000
     1.0000   1.0000   1.0000   1.0000   1.0000   1.0000   1.0000   1.0000
     1.0000   1.0000   0.0000   0.0000   0.0000   0.0000   0.0000

          k = 0.0000 0.1925 0.2325 (  2132 PWs)   bands (ev):

  -116.2854-116.2854 -70.4801 -70.4794 -70.4764 -70.4762 -70.4762 -70.4760
    -9.9195  -9.7282   1.6503   1.7200   1.9114   1.9218   1.9833   1.9848
     2.7148   2.7233   2.7883   2.8064   4.3494   5.1962   5.9567   6.3437
     6.4495   6.6518  10.2802  11.6051  15.8478  17.1780  18.3341

     occupation numbers 
     1.0000   1.0000   1.0000   1.0000   1.0000   1.0000   1.0000   1.0000
     1.0000   1.0000   1.0000   1.0000   1.0000   1.0000   1.0000   1.0000
     1.0000   1.0000   1.0000   1.0000   1.0000   1.0000   1.0000   1.0000
     1.0000   1.0000   0.0000   0.0000   0.0000   0.0000   0.0000

          k = 0.0000 0.1925-0.3100 (  2124 PWs)   bands (ev):

  -116.2854-116.2854 -70.4797 -70.4797 -70.4763 -70.4763 -70.4761 -70.4761
    -9.8243  -9.8243   1.6567   1.6567   1.9438   1.9438   1.9447   1.9447
     2.7573   2.7573   2.7627   2.7627   4.8058   4.8058   6.1924   6.1924
     6.4987   6.4987  10.9419  10.9419  16.4939  16.4939  18.4814

     occupation numbers 
     1.0000   1.0000   1.0000   1.0000   1.0000   1.0000   1.0000   1.0000
     1.0000   1.0000   1.0000   1.0000   1.0000   1.0000   1.0000   1.0000
     1.0000   1.0000   1.0000   1.0000   1.0000   1.0000   1.0000   1.0000
     1.0000   1.0000   0.0000   0.0000   0.0000   0.0000   0.0000

          k = 0.0000 0.2887 0.0000 (  2150 PWs)   bands (ev):

  -116.2855-116.2854 -70.4805 -70.4791 -70.4768 -70.4766 -70.4764 -70.4761
    -9.9468  -9.5253   1.6625   1.9043   1.9264   2.0540   2.1697   2.4346
     2.5848   2.6805   2.8391   3.0216   3.2613   4.7954   5.3989   5.7911
     6.6384   6.7248  10.0639  13.5130  14.9406  16.3117  18.0008

     occupation numbers 
     1.0000   1.0000   1.0000   1.0000   1.0000   1.0000   1.0000   1.0000
     1.0000   1.0000   1.0000   1.0000   1.0000   1.0000   1.0000   1.0000
     1.0000   1.0000   1.0000   1.0000   1.0000   1.0000   1.0000   1.0000
     1.0000   1.0000   0.0000   0.0000   0.0000   0.0000   0.0000

          k = 0.0000 0.2887 0.0775 (  2151 PWs)   bands (ev):

  -116.2855-116.2854 -70.4805 -70.4791 -70.4768 -70.4766 -70.4764 -70.4761
    -9.9309  -9.5414   1.6512   1.8809   1.9332   2.0423   2.1576   2.3214
     2.6081   2.6869   2.8334   2.9410   3.5150   4.8355   5.3551   5.8285
     6.6197   6.6905  10.1580  13.3092  15.0443  16.3485  17.9747

     occupation numbers 
     1.0000   1.0000   1.0000   1.0000   1.0000   1.0000   1.0000   1.0000
     1.0000   1.0000   1.0000   1.0000   1.0000   1.0000   1.0000   1.0000
     1.0000   1.0000   1.0000   1.0000   1.0000   1.0000   1.0000   1.0000
     1.0000   1.0000   0.0000   0.0000   0.0000   0.0000   0.0000

          k = 0.0000 0.2887 0.1550 (  2147 PWs)   bands (ev):

  -116.2855-116.2854 -70.4803 -70.4793 -70.4768 -70.4766 -70.4764 -70.4761
    -9.8853  -9.5871   1.6243   1.8027   1.9536   2.0189   2.1244   2.1626
     2.6551   2.7051   2.8170   2.8802   3.9141   4.8888   5.3321   5.9337
     6.5182   6.5924  10.4458  12.8114  15.2991  16.4088  17.8819

     occupation numbers 
     1.0000   1.0000   1.0000   1.0000   1.0000   1.0000   1.0000   1.0000
     1.0000   1.0000   1.0000   1.0000   1.0000   1.0000   1.0000   1.0000
     1.0000   1.0000   1.0000   1.0000   1.0000   1.0000   1.0000   1.0000
     1.0000   1.0000   0.0000   0.0000   0.0000   0.0000   0.0000

          k = 0.0000 0.2887 0.2325 (  2148 PWs)   bands (ev):

  -116.2855-116.2854 -70.4800 -70.4794 -70.4768 -70.4766 -70.4764 -70.4762
    -9.8171  -9.6556   1.6041   1.6939   1.9868   2.0113   2.0748   2.0787
     2.7134   2.7318   2.7921   2.8292   4.2730   4.7781   5.5557   6.0885
     6.2802   6.4444  10.9165  12.1790  15.6483  16.3373  17.8602

     occupation numbers 
     1.0000   1.0000   1.0000   1.0000   1.0000   1.0000   1.0000   1.0000
     1.0000   1.0000   1.0000   1.0000   1.0000   1.0000   1.0000   1.0000
     1.0000   1.0000   1.0000   1.0000   1.0000   1.0000   1.0000   1.0000
     1.0000   1.0000   0.0000   0.0000   0.0000   0.0000   0.0000

          k = 0.0000 0.2887-0.3100 (  2140 PWs)   bands (ev):

  -116.2854-116.2854 -70.4797 -70.4797 -70.4767 -70.4767 -70.4762 -70.4762
    -9.7364  -9.7364   1.6210   1.6210   2.0298   2.0298   2.0302   2.0302
     2.7623   2.7623   2.7734   2.7734   4.5573   4.5573   5.9274   5.9274
     6.2679   6.2679  11.5192  11.5192  16.0375  16.0375  18.1160

     occupation numbers 
     1.0000   1.0000   1.0000   1.0000   1.0000   1.0000   1.0000   1.0000
     1.0000   1.0000   1.0000   1.0000   1.0000   1.0000   1.0000   1.0000
     1.0000   1.0000   1.0000   1.0000   1.0000   1.0000   1.0000   1.0000
     1.0000   1.0000   0.0000   0.0000   0.0000   0.0000   0.0000

          k = 0.0000 0.3849 0.0000 (  2160 PWs)   bands (ev):

  -116.2855-116.2854 -70.4804 -70.4792 -70.4772 -70.4768 -70.4766 -70.4762
    -9.8110  -9.4877   1.6500   1.9124   1.9731   2.1785   2.2944   2.4492
     2.6235   2.7215   2.8473   3.0257   3.4821   4.1703   4.9103   5.4854
     6.3658   6.5462  11.0056  14.0513  14.7723  15.4486  17.4147

     occupation numbers 
     1.0000   1.0000   1.0000   1.0000   1.0000   1.0000   1.0000   1.0000
     1.0000   1.0000   1.0000   1.0000   1.0000   1.0000   1.0000   1.0000
     1.0000   1.0000   1.0000   1.0000   1.0000   1.0000   1.0000   1.0000
     1.0000   1.0000   0.0000   0.0000   0.0000   0.0000   0.0000

          k = 0.0000 0.3849 0.0775 (  2156 PWs)   bands (ev):

  -116.2855-116.2854 -70.4803 -70.4793 -70.4772 -70.4768 -70.4765 -70.4762
    -9.7984  -9.4995   1.6372   1.8816   1.9829   2.1664   2.2793   2.3797
     2.6318   2.7257   2.8412   2.9791   3.6071   4.2494   4.9046   5.5289
     6.3781   6.5076  11.0505  13.7962  14.8921  15.4853  17.4237

     occupation numbers 
     1.0000   1.0000   1.0000   1.0000   1.0000   1.0000   1.0000   1.0000
     1.0000   1.0000   1.0000   1.0000   1.0000   1.0000   1.0000   1.0000
     1.0000   1.0000   1.0000   1.0000   1.0000   1.0000   1.0000   1.0000
     1.0000   1.0000   0.0000   0.0000   0.0000   0.0000   0.0000

          k = 0.0000 0.3849 0.1550 (  2146 PWs)   bands (ev):

  -116.2854-116.2854 -70.4801 -70.4794 -70.4771 -70.4769 -70.4765 -70.4762
    -9.7624  -9.5335   1.6076   1.7922   2.0115   2.1410   2.2375   2.2574
     2.6736   2.7377   2.8248   2.9176   3.7977   4.3484   5.0331   5.6507
     6.3528   6.3974  11.2136  13.2620  15.0863  15.5563  17.4481

     occupation numbers 
     1.0000   1.0000   1.0000   1.0000   1.0000   1.0000   1.0000   1.0000
     1.0000   1.0000   1.0000   1.0000   1.0000   1.0000   1.0000   1.0000
     1.0000   1.0000   1.0000   1.0000   1.0000   1.0000   1.0000   1.0000
     1.0000   1.0000   0.0000   0.0000   0.0000   0.0000   0.0000

          k = 0.0000 0.3849 0.2325 (  2144 PWs)   bands (ev):

  -116.2854-116.2854 -70.4799 -70.4796 -70.4770 -70.4769 -70.4764 -70.4762
    -9.7090  -9.5851   1.5869   1.6811   2.0570   2.1268   2.1788   2.1789
     2.7339   2.7560   2.8026   2.8593   3.9674   4.2757   5.4191   5.8281
     6.1882   6.2310  11.5431  12.6418  15.2802  15.5646  17.6057

     occupation numbers 
     1.0000   1.0000   1.0000   1.0000   1.0000   1.0000   1.0000   1.0000
     1.0000   1.0000   1.0000   1.0000   1.0000   1.0000   1.0000   1.0000
     1.0000   1.0000   1.0000   1.0000   1.0000   1.0000   1.0000   1.0000
     1.0000   1.0000   0.0000   0.0000   0.0000   0.0000   0.0000

          k = 0.0000 0.3849-0.3100 (  2140 PWs)   bands (ev):

  -116.2854-116.2854 -70.4797 -70.4797 -70.4769 -70.4769 -70.4763 -70.4763
    -9.6466  -9.6466   1.6060   1.6060   2.1152   2.1152   2.1386   2.1386
     2.7786   2.7786   2.7979   2.7979   4.1289   4.1289   5.8553   5.8553
     6.0318   6.0318  12.0394  12.0394  15.4566  15.4566  18.0224

     occupation numbers 
     1.0000   1.0000   1.0000   1.0000   1.0000   1.0000   1.0000   1.0000
     1.0000   1.0000   1.0000   1.0000   1.0000   1.0000   1.0000   1.0000
     1.0000   1.0000   1.0000   1.0000   1.0000   1.0000   1.0000   1.0000
     1.0000   1.0000   0.0000   0.0000   0.0000   0.0000   0.0000

          k = 0.0000 0.4811 0.0000 (  2162 PWs)   bands (ev):

  -116.2855-116.2854 -70.4802 -70.4793 -70.4775 -70.4771 -70.4767 -70.4762
    -9.6968  -9.4725   1.6791   1.9403   1.9988   2.3185   2.3881   2.3948
     2.6870   2.7711   2.8556   3.0135   3.4639   3.9278   4.6107   5.2507
     6.0854   6.4100  11.8745  14.1874  14.3654  14.9856  17.1726

     occupation numbers 
     1.0000   1.0000   1.0000   1.0000   1.0000   1.0000   1.0000   1.0000
     1.0000   1.0000   1.0000   1.0000   1.0000   1.0000   1.0000   1.0000
     1.0000   1.0000   1.0000   1.0000   1.0000   1.0000   1.0000   1.0000
     1.0000   1.0000   0.0000   0.0000   0.0000   0.0000   0.0000

          k = 0.0000 0.4811 0.0775 (  2150 PWs)   bands (ev):

  -116.2854-116.2854 -70.4801 -70.4793 -70.4774 -70.4771 -70.4767 -70.4762
    -9.6876  -9.4803   1.6633   1.8982   2.0109   2.3071   2.3562   2.3765
     2.7026   2.7730   2.8495   2.9932   3.4611   3.9637   4.7092   5.2996
     6.1259   6.3684  11.8660  13.8824  14.5842  15.0033  17.1660

     occupation numbers 
     1.0000   1.0000   1.0000   1.0000   1.0000   1.0000   1.0000   1.0000
     1.0000   1.0000   1.0000   1.0000   1.0000   1.0000   1.0000   1.0000
     1.0000   1.0000   1.0000   1.0000   1.0000   1.0000   1.0000   1.0000
     1.0000   1.0000   0.0000   0.0000   0.0000   0.0000   0.0000

          k = 0.0000 0.4811 0.1550 (  2155 PWs)   bands (ev):

  -116.2854-116.2854 -70.4801 -70.4795 -70.4774 -70.4771 -70.4766 -70.4762
    -9.6616  -9.5028   1.6266   1.7919   2.0465   2.2777   2.3045   2.3256
     2.7424   2.7788   2.8346   2.9476   3.5005   3.9346   5.0341   5.4354
     6.1785   6.2495  11.8928  13.4191  14.7930  15.0424  17.2095

     occupation numbers 
     1.0000   1.0000   1.0000   1.0000   1.0000   1.0000   1.0000   1.0000
     1.0000   1.0000   1.0000   1.0000   1.0000   1.0000   1.0000   1.0000
     1.0000   1.0000   1.0000   1.0000   1.0000   1.0000   1.0000   1.0000
     1.0000   1.0000   0.0000   0.0000   0.0000   0.0000   0.0000

          k = 0.0000 0.4811 0.2325 (  2145 PWs)   bands (ev):

  -116.2854-116.2854 -70.4799 -70.4796 -70.4773 -70.4771 -70.4764 -70.4763
    -9.6235  -9.5374   1.5975   1.6782   2.1030   2.2530   2.2535   2.2701
     2.7884   2.7930   2.8174   2.8969   3.5882   3.8274   5.4720   5.6311
     6.0697   6.1147  12.0582  12.8994  14.9327  15.0596  17.4477

     occupation numbers 
     1.0000   1.0000   1.0000   1.0000   1.0000   1.0000   1.0000   1.0000
     1.0000   1.0000   1.0000   1.0000   1.0000   1.0000   1.0000   1.0000
     1.0000   1.0000   1.0000   1.0000   1.0000   1.0000   1.0000   1.0000
     1.0000   1.0000   0.0000   0.0000   0.0000   0.0000   0.0000

          k = 0.0000 0.4811-0.3100 (  2144 PWs)   bands (ev):

  -116.2854-116.2854 -70.4798 -70.4798 -70.4772 -70.4772 -70.4763 -70.4763
    -9.5798  -9.5798   1.6088   1.6088   2.1750   2.1750   2.2514   2.2514
     2.8014   2.8014   2.8454   2.8454   3.7030   3.7030   5.8535   5.8535
     5.8675   5.8675  12.4110  12.4110  15.0212  15.0212  17.9515

     occupation numbers 
     1.0000   1.0000   1.0000   1.0000   1.0000   1.0000   1.0000   1.0000
     1.0000   1.0000   1.0000   1.0000   1.0000   1.0000   1.0000   1.0000
     1.0000   1.0000   1.0000   1.0000   1.0000   1.0000   1.0000   1.0000
     1.0000   1.0000   0.0000   0.0000   0.0000   0.0000   0.0000

          k = 0.0000-0.5774 0.0000 (  2164 PWs)   bands (ev):

  -116.2855-116.2854 -70.4800 -70.4795 -70.4775 -70.4773 -70.4767 -70.4763
    -9.6478  -9.4736   1.6997   1.9681   2.0063   2.3234   2.4296   2.4331
     2.7151   2.7949   2.8593   2.9186   3.4502   3.8616   4.5694   5.1612
     5.9497   6.3588  12.3509  13.7790  14.4957  14.7889  17.0982

     occupation numbers 
     1.0000   1.0000   1.0000   1.0000   1.0000   1.0000   1.0000   1.0000
     1.0000   1.0000   1.0000   1.0000   1.0000   1.0000   1.0000   1.0000
     1.0000   1.0000   1.0000   1.0000   1.0000   1.0000   1.0000   1.0000
     1.0000   1.0000   0.0000   0.0000   0.0000   0.0000   0.0000

          k = 0.0000-0.5774 0.0775 (  2154 PWs)   bands (ev):

  -116.2854-116.2854 -70.4800 -70.4794 -70.4774 -70.4773 -70.4767 -70.4762
    -9.6404  -9.4794   1.6826   1.9151   2.0194   2.3177   2.4066   2.4134
     2.7442   2.7960   2.8532   2.9186   3.4295   3.8172   4.7244   5.2123
     6.0024   6.3161  12.2971  13.6713  14.5492  14.8227  17.0790

     occupation numbers 
     1.0000   1.0000   1.0000   1.0000   1.0000   1.0000   1.0000   1.0000
     1.0000   1.0000   1.0000   1.0000   1.0000   1.0000   1.0000   1.0000
     1.0000   1.0000   1.0000   1.0000   1.0000   1.0000   1.0000   1.0000
     1.0000   1.0000   0.0000   0.0000   0.0000   0.0000   0.0000

          k = 0.0000-0.5774 0.1550 (  2152 PWs)   bands (ev):

  -116.2854-116.2854 -70.4800 -70.4795 -70.4774 -70.4773 -70.4766 -70.4762
    -9.6195  -9.4962   1.6423   1.7943   2.0576   2.3061   2.3586   2.3642
     2.7992   2.8012   2.8391   2.9168   3.4116   3.7138   5.0933   5.3539
     6.0903   6.1940  12.2238  13.3739  14.6644  14.8813  17.1175

     occupation numbers 
     1.0000   1.0000   1.0000   1.0000   1.0000   1.0000   1.0000   1.0000
     1.0000   1.0000   1.0000   1.0000   1.0000   1.0000   1.0000   1.0000
     1.0000   1.0000   1.0000   1.0000   1.0000   1.0000   1.0000   1.0000
     1.0000   1.0000   0.0000   0.0000   0.0000   0.0000   0.0000

          k = 0.0000-0.5774 0.2325 (  2152 PWs)   bands (ev):

  -116.2854-116.2854 -70.4799 -70.4796 -70.4773 -70.4773 -70.4765 -70.4763
    -9.5892  -9.5224   1.6078   1.6780   2.1182   2.2807   2.2997   2.3280
     2.8047   2.8245   2.8532   2.9087   3.4356   3.5992   5.5206   5.5570
     6.0092   6.0769  12.2851  12.9587  14.7773  14.8994  17.3775

     occupation numbers 
     1.0000   1.0000   1.0000   1.0000   1.0000   1.0000   1.0000   1.0000
     1.0000   1.0000   1.0000   1.0000   1.0000   1.0000   1.0000   1.0000
     1.0000   1.0000   1.0000   1.0000   1.0000   1.0000   1.0000   1.0000
     1.0000   1.0000   0.0000   0.0000   0.0000   0.0000   0.0000

          k = 0.0000-0.5774-0.3100 (  2152 PWs)   bands (ev):

  -116.2854-116.2854 -70.4798 -70.4798 -70.4773 -70.4773 -70.4764 -70.4764
    -9.5550  -9.5550   1.6129   1.6129   2.1958   2.1958   2.3060   2.3060
     2.8130   2.8130   2.8889   2.8889   3.5017   3.5017   5.7867   5.7867
     5.8797   5.8797  12.5504  12.5504  14.8601  14.8601  17.9104

     occupation numbers 
     1.0000   1.0000   1.0000   1.0000   1.0000   1.0000   1.0000   1.0000
     1.0000   1.0000   1.0000   1.0000   1.0000   1.0000   1.0000   1.0000
     1.0000   1.0000   1.0000   1.0000   1.0000   1.0000   1.0000   1.0000
     1.0000   1.0000   0.0000   0.0000   0.0000   0.0000   0.0000

          k = 0.0833 0.1443 0.0000 (  2149 PWs)   bands (ev):

  -116.2855-116.2854 -70.4808 -70.4789 -70.4765 -70.4763 -70.4761 -70.4759
   -10.0984  -9.5825   1.7405   1.8438   1.8856   1.9634   2.0371   2.3043
     2.6321   2.6591   2.8295   2.9435   3.0942   5.7883   5.9446   6.2604
     6.8838   6.9171   8.8957  12.5919  14.9131  17.8443  19.0689

     occupation numbers 
     1.0000   1.0000   1.0000   1.0000   1.0000   1.0000   1.0000   1.0000
     1.0000   1.0000   1.0000   1.0000   1.0000   1.0000   1.0000   1.0000
     1.0000   1.0000   1.0000   1.0000   1.0000   1.0000   1.0000   1.0000
     1.0001   1.0003   0.0000   0.0000   0.0000   0.0000   0.0000

          k = 0.0833 0.1443 0.0775 (  2144 PWs)   bands (ev):

  -116.2855-116.2854 -70.4807 -70.4790 -70.4765 -70.4763 -70.4761 -70.4759
   -10.0794  -9.6027   1.7295   1.8453   1.8820   1.9439   2.0273   2.1863
     2.6437   2.6681   2.8249   2.8764   3.3688   5.8242   5.8814   6.2367
     6.8446   6.8881   9.0677  12.4397  15.0279  17.8635  19.0696

     occupation numbers 
     1.0000   1.0000   1.0000   1.0000   1.0000   1.0000   1.0000   1.0000
     1.0000   1.0000   1.0000   1.0000   1.0000   1.0000   1.0000   1.0000
     1.0000   1.0000   1.0000   1.0000   1.0000   1.0000   1.0000   1.0000
     1.0000   1.0001   0.0000   0.0000   0.0000   0.0000   0.0000

          k = 0.0833 0.1443 0.1550 (  2145 PWs)   bands (ev):

  -116.2855-116.2854 -70.4804 -70.4792 -70.4764 -70.4763 -70.4762 -70.4760
   -10.0249  -9.6601   1.6994   1.8260   1.8800   1.8913   2.0012   2.0348
     2.6750   2.6910   2.8109   2.8370   3.8378   5.6426   5.9295   6.2718
     6.7222   6.8053   9.5172  12.0310  15.3543  17.8464  18.8903

     occupation numbers 
     1.0000   1.0000   1.0000   1.0000   1.0000   1.0000   1.0000   1.0000
     1.0000   1.0000   1.0000   1.0000   1.0000   1.0000   1.0000   1.0000
     1.0000   1.0000   1.0000   1.0000   1.0000   1.0000   1.0000   1.0000
     1.0000   1.0000   0.0000   0.0000   0.0000   0.0000   0.0000

          k = 0.0833 0.1443 0.2325 (  2138 PWs)   bands (ev):

  -116.2855-116.2854 -70.4801 -70.4794 -70.4764 -70.4762 -70.4762 -70.4761
    -9.9426  -9.7452   1.6689   1.7295   1.8901   1.8939   1.9661   1.9672
     2.7173   2.7225   2.7876   2.8024   4.3475   5.2767   6.0950   6.3787
     6.5358   6.6812  10.1256  11.4563  15.8716  17.3662  18.5251

     occupation numbers 
     1.0000   1.0000   1.0000   1.0000   1.0000   1.0000   1.0000   1.0000
     1.0000   1.0000   1.0000   1.0000   1.0000   1.0000   1.0000   1.0000
     1.0000   1.0000   1.0000   1.0000   1.0000   1.0000   1.0000   1.0000
     1.0000   1.0000   0.0000   0.0000   0.0000   0.0000   0.0000

          k = 0.0833 0.1443-0.3100 (  2144 PWs)   bands (ev):

  -116.2855-116.2855 -70.4797 -70.4797 -70.4763 -70.4763 -70.4762 -70.4762
    -9.8445  -9.8445   1.6704   1.6704   1.9064   1.9064   1.9412   1.9412
     2.7565   2.7565   2.7622   2.7622   4.8378   4.8378   6.3011   6.3011
     6.5371   6.5371  10.7971  10.7971  16.5665  16.5665  18.6568

     occupation numbers 
     1.0000   1.0000   1.0000   1.0000   1.0000   1.0000   1.0000   1.0000
     1.0000   1.0000   1.0000   1.0000   1.0000   1.0000   1.0000   1.0000
     1.0000   1.0000   1.0000   1.0000   1.0000   1.0000   1.0000   1.0000
     1.0000   1.0000   0.0000   0.0000   0.0000   0.0000   0.0000

          k = 0.0833 0.2406 0.0000 (  2151 PWs)   bands (ev):

  -116.2855-116.2854 -70.4806 -70.4790 -70.4767 -70.4765 -70.4764 -70.4760
    -9.9934  -9.5414   1.6991   1.8741   1.9245   2.0024   2.1342   2.3977
     2.6006   2.6658   2.8355   3.0189   3.1881   5.1562   5.4617   5.9311
     6.7256   6.7437   9.7513  13.2860  14.9647  16.7877  18.2493

     occupation numbers 
     1.0000   1.0000   1.0000   1.0000   1.0000   1.0000   1.0000   1.0000
     1.0000   1.0000   1.0000   1.0000   1.0000   1.0000   1.0000   1.0000
     1.0000   1.0000   1.0000   1.0000   1.0000   1.0000   1.0000   1.0000
     1.0000   1.0000   0.0000   0.0000   0.0000   0.0000   0.0000

          k = 0.0833 0.2406 0.0775 (  2147 PWs)   bands (ev):

  -116.2855-116.2854 -70.4805 -70.4791 -70.4767 -70.4765 -70.4764 -70.4760
    -9.9764  -9.5588   1.6871   1.8664   1.9202   1.9887   2.1231   2.2820
     2.6177   2.6761   2.8301   2.9271   3.4679   5.1854   5.4364   5.9391
     6.6955   6.7144   9.8646  13.0986  15.0711  16.8142  18.2711

     occupation numbers 
     1.0000   1.0000   1.0000   1.0000   1.0000   1.0000   1.0000   1.0000
     1.0000   1.0000   1.0000   1.0000   1.0000   1.0000   1.0000   1.0000
     1.0000   1.0000   1.0000   1.0000   1.0000   1.0000   1.0000   1.0000
     1.0000   1.0000   0.0000   0.0000   0.0000   0.0000   0.0000

          k = 0.0833 0.2406 0.1550 (  2147 PWs)   bands (ev):

  -116.2855-116.2854 -70.4803 -70.4793 -70.4767 -70.4765 -70.4763 -70.4761
    -9.9280  -9.6082   1.6570   1.8100   1.9233   1.9636   2.0932   2.1236
     2.6593   2.6979   2.8143   2.8694   3.9048   5.1623   5.4677   5.9997
     6.5802   6.6203  10.1967  12.6249  15.3526  16.8480  18.2294

     occupation numbers 
     1.0000   1.0000   1.0000   1.0000   1.0000   1.0000   1.0000   1.0000
     1.0000   1.0000   1.0000   1.0000   1.0000   1.0000   1.0000   1.0000
     1.0000   1.0000   1.0000   1.0000   1.0000   1.0000   1.0000   1.0000
     1.0000   1.0000   0.0000   0.0000   0.0000   0.0000   0.0000

          k = 0.0833 0.2406 0.2325 (  2138 PWs)   bands (ev):

  -116.2855-116.2854 -70.4801 -70.4794 -70.4766 -70.4765 -70.4763 -70.4762
    -9.8552  -9.6821   1.6313   1.7081   1.9402   1.9601   2.0427   2.0562
     2.7134   2.7269   2.7898   2.8223   4.3286   4.9653   5.6961   6.1228
     6.3537   6.4732  10.7102  12.0039  15.7683  16.7091  18.0742

     occupation numbers 
     1.0000   1.0000   1.0000   1.0000   1.0000   1.0000   1.0000   1.0000
     1.0000   1.0000   1.0000   1.0000   1.0000   1.0000   1.0000   1.0000
     1.0000   1.0000   1.0000   1.0000   1.0000   1.0000   1.0000   1.0000
     1.0000   1.0000   0.0000   0.0000   0.0000   0.0000   0.0000

          k = 0.0833 0.2406-0.3100 (  2136 PWs)   bands (ev):

  -116.2854-116.2854 -70.4797 -70.4797 -70.4765 -70.4765 -70.4762 -70.4762
    -9.7688  -9.7688   1.6414   1.6414   1.9590   1.9590   2.0262   2.0262
     2.7579   2.7579   2.7713   2.7713   4.6834   4.6834   6.0156   6.0156
     6.3067   6.3067  11.3383  11.3383  16.2732  16.2732  18.1378

     occupation numbers 
     1.0000   1.0000   1.0000   1.0000   1.0000   1.0000   1.0000   1.0000
     1.0000   1.0000   1.0000   1.0000   1.0000   1.0000   1.0000   1.0000
     1.0000   1.0000   1.0000   1.0000   1.0000   1.0000   1.0000   1.0000
     1.0000   1.0000   0.0000   0.0000   0.0000   0.0000   0.0000

          k = 0.0833 0.3368 0.0000 (  2156 PWs)   bands (ev):

  -116.2855-116.2854 -70.4804 -70.4792 -70.4771 -70.4767 -70.4765 -70.4762
    -9.8630  -9.4999   1.6783   1.9011   1.9563   2.1042   2.2547   2.4663
     2.5885   2.6955   2.8437   3.0257   3.4114   4.4838   5.0417   5.5347
     6.4882   6.5441  10.6841  13.9089  14.9884  15.8325  17.5991

     occupation numbers 
     1.0000   1.0000   1.0000   1.0000   1.0000   1.0000   1.0000   1.0000
     1.0000   1.0000   1.0000   1.0000   1.0000   1.0000   1.0000   1.0000
     1.0000   1.0000   1.0000   1.0000   1.0000   1.0000   1.0000   1.0000
     1.0000   1.0000   0.0000   0.0000   0.0000   0.0000   0.0000

          k = 0.0833 0.3368 0.0775 (  2146 PWs)   bands (ev):

  -116.2855-116.2854 -70.4803 -70.4792 -70.4770 -70.4767 -70.4765 -70.4762
    -9.8490  -9.5134   1.6655   1.8802   1.9593   2.0937   2.2408   2.3657
     2.6066   2.7069   2.8379   2.9697   3.5976   4.5383   5.0305   5.5647
     6.4793   6.5146  10.7511  13.6912  15.0636  15.8729  17.6356

     occupation numbers 
     1.0000   1.0000   1.0000   1.0000   1.0000   1.0000   1.0000   1.0000
     1.0000   1.0000   1.0000   1.0000   1.0000   1.0000   1.0000   1.0000
     1.0000   1.0000   1.0000   1.0000   1.0000   1.0000   1.0000   1.0000
     1.0000   1.0000   0.0000   0.0000   0.0000   0.0000   0.0000

          k = 0.0833 0.3368 0.1550 (  2141 PWs)   bands (ev):

  -116.2855-116.2854 -70.4802 -70.4793 -70.4769 -70.4767 -70.4764 -70.4762
    -9.8091  -9.5522   1.6350   1.8051   1.9776   2.0718   2.2000   2.2161
     2.6561   2.7255   2.8221   2.9079   3.8931   4.6024   5.1158   5.6656
     6.3773   6.4516  10.9702  13.1750  15.2449  15.9434  17.6378

     occupation numbers 
     1.0000   1.0000   1.0000   1.0000   1.0000   1.0000   1.0000   1.0000
     1.0000   1.0000   1.0000   1.0000   1.0000   1.0000   1.0000   1.0000
     1.0000   1.0000   1.0000   1.0000   1.0000   1.0000   1.0000   1.0000
     1.0000   1.0000   0.0000   0.0000   0.0000   0.0000   0.0000

          k = 0.0833 0.3368 0.2325 (  2142 PWs)   bands (ev):

  -116.2854-116.2854 -70.4800 -70.4795 -70.4769 -70.4768 -70.4764 -70.4762
    -9.7497  -9.6105   1.6119   1.7000   2.0096   2.0599   2.1254   2.1558
     2.7196   2.7475   2.8002   2.8510   4.1384   4.5092   5.4541   5.8289
     6.1923   6.2803  11.3634  12.5424  15.4910  15.9283  17.6488

     occupation numbers 
     1.0000   1.0000   1.0000   1.0000   1.0000   1.0000   1.0000   1.0000
     1.0000   1.0000   1.0000   1.0000   1.0000   1.0000   1.0000   1.0000
     1.0000   1.0000   1.0000   1.0000   1.0000   1.0000   1.0000   1.0000
     1.0000   1.0000   0.0000   0.0000   0.0000   0.0000   0.0000

          k = 0.0833 0.3368-0.3100 (  2142 PWs)   bands (ev):

  -116.2854-116.2854 -70.4798 -70.4797 -70.4768 -70.4768 -70.4763 -70.4763
    -9.6799  -9.6799   1.6280   1.6280   2.0440   2.0440   2.1141   2.1141
     2.7678   2.7678   2.7933   2.7933   4.3395   4.3395   5.8551   5.8551
     6.0612   6.0612  11.9093  11.9093  15.7522  15.7522  17.8737

     occupation numbers 
     1.0000   1.0000   1.0000   1.0000   1.0000   1.0000   1.0000   1.0000
     1.0000   1.0000   1.0000   1.0000   1.0000   1.0000   1.0000   1.0000
     1.0000   1.0000   1.0000   1.0000   1.0000   1.0000   1.0000   1.0000
     1.0000   1.0000   0.0000   0.0000   0.0000   0.0000   0.0000

          k = 0.0833 0.4330 0.0000 (  2148 PWs)   bands (ev):

  -116.2854-116.2854 -70.4802 -70.4792 -70.4773 -70.4770 -70.4766 -70.4762
    -9.7362  -9.4749   1.6942   1.9420   1.9869   2.2347   2.3650   2.4359
     2.6513   2.7344   2.8545   3.0416   3.5112   4.0434   4.7092   5.2025
     6.1945   6.3693  11.6111  14.2811  14.6776  15.1767  17.2859

     occupation numbers 
     1.0000   1.0000   1.0000   1.0000   1.0000   1.0000   1.0000   1.0000
     1.0000   1.0000   1.0000   1.0000   1.0000   1.0000   1.0000   1.0000
     1.0000   1.0000   1.0000   1.0000   1.0000   1.0000   1.0000   1.0000
     1.0000   1.0000   0.0000   0.0000   0.0000   0.0000   0.0000

          k = 0.0833 0.4330 0.0775 (  2150 PWs)   bands (ev):

  -116.2855-116.2854 -70.4801 -70.4793 -70.4773 -70.4770 -70.4766 -70.4762
    -9.7257  -9.4842   1.6799   1.9089   1.9952   2.2229   2.3466   2.3847
     2.6538   2.7480   2.8493   3.0092   3.5544   4.1134   4.7574   5.2515
     6.2192   6.3314  11.6326  14.0137  14.8161  15.2066  17.2729

     occupation numbers 
     1.0000   1.0000   1.0000   1.0000   1.0000   1.0000   1.0000   1.0000
     1.0000   1.0000   1.0000   1.0000   1.0000   1.0000   1.0000   1.0000
     1.0000   1.0000   1.0000   1.0000   1.0000   1.0000   1.0000   1.0000
     1.0000   1.0000   0.0000   0.0000   0.0000   0.0000   0.0000

          k = 0.0833 0.4330 0.1550 (  2149 PWs)   bands (ev):

  -116.2854-116.2854 -70.4801 -70.4794 -70.4772 -70.4770 -70.4765 -70.4763
    -9.6960  -9.5109   1.6460   1.8153   2.0243   2.1983   2.2841   2.3021
     2.6909   2.7653   2.8367   2.9514   3.6497   4.1376   5.0087   5.3933
     6.1723   6.2805  11.7321  13.5112  14.9846  15.2706  17.2501

     occupation numbers 
     1.0000   1.0000   1.0000   1.0000   1.0000   1.0000   1.0000   1.0000
     1.0000   1.0000   1.0000   1.0000   1.0000   1.0000   1.0000   1.0000
     1.0000   1.0000   1.0000   1.0000   1.0000   1.0000   1.0000   1.0000
     1.0000   1.0000   0.0000   0.0000   0.0000   0.0000   0.0000

          k = 0.0833 0.4330 0.2325 (  2152 PWs)   bands (ev):

  -116.2854-116.2854 -70.4799 -70.4796 -70.4771 -70.4770 -70.4765 -70.4763
    -9.6521  -9.5519   1.6195   1.7049   2.0735   2.1802   2.2147   2.2408
     2.7456   2.7795   2.8248   2.8926   3.7706   4.0400   5.4025   5.6170
     5.9905   6.1844  11.9785  12.9397  15.1247  15.2968  17.3539

     occupation numbers 
     1.0000   1.0000   1.0000   1.0000   1.0000   1.0000   1.0000   1.0000
     1.0000   1.0000   1.0000   1.0000   1.0000   1.0000   1.0000   1.0000
     1.0000   1.0000   1.0000   1.0000   1.0000   1.0000   1.0000   1.0000
     1.0000   1.0000   0.0000   0.0000   0.0000   0.0000   0.0000

          k = 0.0833 0.4330-0.3100 (  2138 PWs)   bands (ev):

  -116.2854-116.2854 -70.4797 -70.4797 -70.4770 -70.4770 -70.4764 -70.4764
    -9.6014  -9.6014   1.6335   1.6335   2.1362   2.1362   2.2017   2.2017
     2.7819   2.7819   2.8398   2.8398   3.9055   3.9055   5.7214   5.7214
     5.9453   5.9453  12.3978  12.3978  15.2390  15.2390  17.6926

     occupation numbers 
     1.0000   1.0000   1.0000   1.0000   1.0000   1.0000   1.0000   1.0000
     1.0000   1.0000   1.0000   1.0000   1.0000   1.0000   1.0000   1.0000
     1.0000   1.0000   1.0000   1.0000   1.0000   1.0000   1.0000   1.0000
     1.0000   1.0000   0.0000   0.0000   0.0000   0.0000   0.0000

          k = 0.0833 0.5292 0.0000 (  2151 PWs)   bands (ev):

  -116.2854-116.2854 -70.4800 -70.4794 -70.4774 -70.4772 -70.4766 -70.4763
    -9.6497  -9.4725   1.7187   1.9961   2.0147   2.3534   2.3596   2.4543
     2.6972   2.7697   2.8678   2.9623   3.4570   3.9063   4.5676   5.0646
     5.9433   6.2666  12.3751  14.0676  14.4861  14.8661  17.1335

     occupation numbers 
     1.0000   1.0000   1.0000   1.0000   1.0000   1.0000   1.0000   1.0000
     1.0000   1.0000   1.0000   1.0000   1.0000   1.0000   1.0000   1.0000
     1.0000   1.0000   1.0000   1.0000   1.0000   1.0000   1.0000   1.0000
     1.0000   1.0000   0.0000   0.0000   0.0000   0.0000   0.0000

          k = 0.0833 0.5292 0.0775 (  2151 PWs)   bands (ev):

  -116.2854-116.2854 -70.4800 -70.4794 -70.4774 -70.4772 -70.4766 -70.4763
    -9.6421  -9.4784   1.7038   1.9569   2.0103   2.3389   2.3487   2.4273
     2.7186   2.7746   2.8649   2.9607   3.4382   3.8810   4.6976   5.1280
     5.9912   6.2252  12.3435  13.9111  14.5795  14.8920  17.0774

     occupation numbers 
     1.0000   1.0000   1.0000   1.0000   1.0000   1.0000   1.0000   1.0000
     1.0000   1.0000   1.0000   1.0000   1.0000   1.0000   1.0000   1.0000
     1.0000   1.0000   1.0000   1.0000   1.0000   1.0000   1.0000   1.0000
     1.0000   1.0000   0.0000   0.0000   0.0000   0.0000   0.0000

          k = 0.0833 0.5292 0.1550 (  2155 PWs)   bands (ev):

  -116.2854-116.2854 -70.4800 -70.4796 -70.4774 -70.4772 -70.4766 -70.4763
    -9.6210  -9.4956   1.6673   1.8338   2.0425   2.3100   2.3282   2.3591
     2.7571   2.7855   2.8630   2.9515   3.4352   3.7944   5.0060   5.3194
     6.0221   6.1524  12.3142  13.5648  14.7230  14.9413  17.0248

     occupation numbers 
     1.0000   1.0000   1.0000   1.0000   1.0000   1.0000   1.0000   1.0000
     1.0000   1.0000   1.0000   1.0000   1.0000   1.0000   1.0000   1.0000
     1.0000   1.0000   1.0000   1.0000   1.0000   1.0000   1.0000   1.0000
     1.0000   1.0000   0.0000   0.0000   0.0000   0.0000   0.0000

          k = 0.0833 0.5292 0.2325 (  2150 PWs)   bands (ev):

  -116.2854-116.2854 -70.4799 -70.4797 -70.4773 -70.4772 -70.4765 -70.4764
    -9.5903  -9.5223   1.6360   1.7134   2.0997   2.2657   2.2968   2.3073
     2.7815   2.7943   2.8765   2.9316   3.4830   3.6796   5.3253   5.6265
     5.8543   6.1171  12.4120  13.1246  14.8393  14.9581  17.1682

     occupation numbers 
     1.0000   1.0000   1.0000   1.0000   1.0000   1.0000   1.0000   1.0000
     1.0000   1.0000   1.0000   1.0000   1.0000   1.0000   1.0000   1.0000
     1.0000   1.0000   1.0000   1.0000   1.0000   1.0000   1.0000   1.0000
     1.0000   1.0000   0.0000   0.0000   0.0000   0.0000   0.0000

          k = 0.0833 0.5292-0.3100 (  2146 PWs)   bands (ev):

  -116.2854-116.2854 -70.4798 -70.4798 -70.4773 -70.4772 -70.4764 -70.4764
    -9.5555  -9.5555   1.6444   1.6444   2.1775   2.1775   2.2941   2.2941
     2.7923   2.7923   2.9041   2.9041   3.5700   3.5700   5.6036   5.6036
     5.9413   5.9413  12.6995  12.6995  14.9201  14.9201  17.5630

     occupation numbers 
     1.0000   1.0000   1.0000   1.0000   1.0000   1.0000   1.0000   1.0000
     1.0000   1.0000   1.0000   1.0000   1.0000   1.0000   1.0000   1.0000
     1.0000   1.0000   1.0000   1.0000   1.0000   1.0000   1.0000   1.0000
     1.0000   1.0000   0.0000   0.0000   0.0000   0.0000   0.0000

          k = 0.1667 0.2887 0.0000 (  2145 PWs)   bands (ev):

  -116.2855-116.2854 -70.4804 -70.4791 -70.4769 -70.4768 -70.4764 -70.4761
    -9.8816  -9.5048   1.7253   1.8518   1.9845   2.0542   2.2448   2.4640
     2.5820   2.6822   2.8420   3.0277   3.3851   4.8122   4.8808   5.5613
     6.4931   6.5378  10.5933  13.8681  15.0940  16.1148  17.5849

     occupation numbers 
     1.0000   1.0000   1.0000   1.0000   1.0000   1.0000   1.0000   1.0000
     1.0000   1.0000   1.0000   1.0000   1.0000   1.0000   1.0000   1.0000
     1.0000   1.0000   1.0000   1.0000   1.0000   1.0000   1.0000   1.0000
     1.0000   1.0000   0.0000   0.0000   0.0000   0.0000   0.0000

          k = 0.1667 0.2887 0.0775 (  2144 PWs)   bands (ev):

  -116.2855-116.2854 -70.4804 -70.4791 -70.4769 -70.4768 -70.4764 -70.4762
    -9.8671  -9.5189   1.7099   1.8437   1.9803   2.0427   2.2314   2.3513
     2.6020   2.6995   2.8363   2.9685   3.5884   4.8569   4.8904   5.5668
     6.4523   6.5362  10.6695  13.6657  15.1531  16.1381  17.7200

     occupation numbers 
     1.0000   1.0000   1.0000   1.0000   1.0000   1.0000   1.0000   1.0000
     1.0000   1.0000   1.0000   1.0000   1.0000   1.0000   1.0000   1.0000
     1.0000   1.0000   1.0000   1.0000   1.0000   1.0000   1.0000   1.0000
     1.0000   1.0000   0.0000   0.0000   0.0000   0.0000   0.0000

          k = 0.1667 0.2887 0.1550 (  2142 PWs)   bands (ev):

  -116.2855-116.2854 -70.4802 -70.4793 -70.4768 -70.4768 -70.4764 -70.4762
    -9.8260  -9.5593   1.6726   1.8002   1.9767   2.0192   2.1902   2.1956
     2.6526   2.7221   2.8211   2.9069   3.9212   4.7703   5.1306   5.6233
     6.3369   6.4775  10.9106  13.1632  15.3293  16.1808  17.9029

     occupation numbers 
     1.0000   1.0000   1.0000   1.0000   1.0000   1.0000   1.0000   1.0000
     1.0000   1.0000   1.0000   1.0000   1.0000   1.0000   1.0000   1.0000
     1.0000   1.0000   1.0000   1.0000   1.0000   1.0000   1.0000   1.0000
     1.0000   1.0000   0.0000   0.0000   0.0000   0.0000   0.0000

          k = 0.1667 0.2887 0.2325 (  2142 PWs)   bands (ev):

  -116.2854-116.2854 -70.4800 -70.4795 -70.4768 -70.4767 -70.4764 -70.4763
    -9.7644  -9.6200   1.6416   1.7137   1.9839   2.0102   2.1125   2.1488
     2.7168   2.7453   2.8001   2.8506   4.2065   4.6218   5.5050   5.7568
     6.1686   6.2853  11.3272  12.5308  15.6074  16.1460  17.8110

     occupation numbers 
     1.0000   1.0000   1.0000   1.0000   1.0000   1.0000   1.0000   1.0000
     1.0000   1.0000   1.0000   1.0000   1.0000   1.0000   1.0000   1.0000
     1.0000   1.0000   1.0000   1.0000   1.0000   1.0000   1.0000   1.0000
     1.0000   1.0000   0.0000   0.0000   0.0000   0.0000   0.0000

          k = 0.1667 0.2887-0.3100 (  2134 PWs)   bands (ev):

  -116.2854-116.2854 -70.4797 -70.4797 -70.4767 -70.4767 -70.4763 -70.4763
    -9.6921  -9.6921   1.6501   1.6501   2.0002   2.0002   2.1098   2.1098
     2.7646   2.7646   2.7943   2.7943   4.4331   4.4331   5.8645   5.8645
     6.0262   6.0262  11.8895  11.8895  15.9269  15.9269  17.7129

     occupation numbers 
     1.0000   1.0000   1.0000   1.0000   1.0000   1.0000   1.0000   1.0000
     1.0000   1.0000   1.0000   1.0000   1.0000   1.0000   1.0000   1.0000
     1.0000   1.0000   1.0000   1.0000   1.0000   1.0000   1.0000   1.0000
     1.0000   1.0000   0.0000   0.0000   0.0000   0.0000   0.0000

          k = 0.1667 0.3849 0.0000 (  2137 PWs)   bands (ev):

  -116.2854-116.2854 -70.4802 -70.4792 -70.4771 -70.4769 -70.4766 -70.4762
    -9.7587  -9.4770   1.7703   1.8753   2.0309   2.1523   2.3576   2.4924
     2.5894   2.7049   2.8547   3.0542   3.5263   4.3227   4.6731   5.0748
     6.2286   6.2855  11.5299  14.2499  15.1726  15.4632  17.3671

     occupation numbers 
     1.0000   1.0000   1.0000   1.0000   1.0000   1.0000   1.0000   1.0000
     1.0000   1.0000   1.0000   1.0000   1.0000   1.0000   1.0000   1.0000
     1.0000   1.0000   1.0000   1.0000   1.0000   1.0000   1.0000   1.0000
     1.0000   1.0000   0.0000   0.0000   0.0000   0.0000   0.0000

          k = 0.1667 0.3849 0.0775 (  2139 PWs)   bands (ev):

  -116.2854-116.2854 -70.4802 -70.4793 -70.4771 -70.4769 -70.4766 -70.4763
    -9.7475  -9.4871   1.7553   1.8630   2.0264   2.1422   2.3394   2.3971
     2.6036   2.7331   2.8501   3.0180   3.6199   4.3531   4.7520   5.0974
     6.1842   6.3073  11.5726  14.0804  15.1554  15.5055  17.4235

     occupation numbers 
     1.0000   1.0000   1.0000   1.0000   1.0000   1.0000   1.0000   1.0000
     1.0000   1.0000   1.0000   1.0000   1.0000   1.0000   1.0000   1.0000
     1.0000   1.0000   1.0000   1.0000   1.0000   1.0000   1.0000   1.0000
     1.0000   1.0000   0.0000   0.0000   0.0000   0.0000   0.0000

          k = 0.1667 0.3849 0.1550 (  2141 PWs)   bands (ev):

  -116.2854-116.2854 -70.4801 -70.4794 -70.4770 -70.4769 -70.4765 -70.4763
    -9.7157  -9.5163   1.7149   1.8186   2.0257   2.1176   2.2492   2.2910
     2.6591   2.7594   2.8398   2.9587   3.7804   4.3294   5.0358   5.2060
     6.0513   6.3203  11.7230  13.6280  15.2090  15.5741  17.3474

     occupation numbers 
     1.0000   1.0000   1.0000   1.0000   1.0000   1.0000   1.0000   1.0000
     1.0000   1.0000   1.0000   1.0000   1.0000   1.0000   1.0000   1.0000
     1.0000   1.0000   1.0000   1.0000   1.0000   1.0000   1.0000   1.0000
     1.0000   1.0000   0.0000   0.0000   0.0000   0.0000   0.0000

          k = 0.1667 0.3849 0.2325 (  2148 PWs)   bands (ev):

  -116.2854-116.2854 -70.4799 -70.4796 -70.4770 -70.4769 -70.4765 -70.4764
    -9.6687  -9.5607   1.6781   1.7407   2.0445   2.0965   2.1757   2.2279
     2.7264   2.7742   2.8312   2.8981   3.9341   4.2212   5.3380   5.4976
     5.8673   6.2162  12.0237  13.0497  15.3527  15.5983  17.2013

     occupation numbers 
[...]
     2.5776   2.6884   2.8741   3.0770   3.5019   4.0805   4.5409   4.7240
     5.9274   6.0020  12.4727  14.4234  15.0835  15.2161  17.5241

     occupation numbers 
     1.0000   1.0000   1.0000   1.0000   1.0000   1.0000   1.0000   1.0000
     1.0000   1.0000   1.0000   1.0000   1.0000   1.0000   1.0000   1.0000
     1.0000   1.0000   1.0000   1.0000   1.0000   1.0000   1.0000   1.0000
     1.0000   1.0000   0.0000   0.0000   0.0000   0.0000   0.0000

          k = 0.2500 0.4330 0.0775 (  2145 PWs)   bands (ev):

  -116.2854-116.2854 -70.4800 -70.4794 -70.4772 -70.4771 -70.4767 -70.4764
    -9.6473  -9.4758   1.8174   1.9274   2.1432   2.1704   2.4173   2.4611
     2.6058   2.7361   2.8733   3.0642   3.5326   4.0785   4.5606   4.8634
     5.8723   6.0527  12.4974  14.3302  15.0819  15.2318  17.2158

     occupation numbers 
     1.0000   1.0000   1.0000   1.0000   1.0000   1.0000   1.0000   1.0000
     1.0000   1.0000   1.0000   1.0000   1.0000   1.0000   1.0000   1.0000
     1.0000   1.0000   1.0000   1.0000   1.0000   1.0000   1.0000   1.0000
     1.0000   1.0000   0.0000   0.0000   0.0000   0.0000   0.0000

          k = 0.2500 0.4330 0.1550 (  2161 PWs)   bands (ev):

  -116.2854-116.2854 -70.4800 -70.4796 -70.4772 -70.4771 -70.4768 -70.4765
    -9.6253  -9.4939   1.8205   1.8499   2.1098   2.1377   2.3353   2.3528
     2.6668   2.7677   2.8768   3.0286   3.6096   4.0331   4.6713   5.1949
     5.7258   6.1406  12.5924  14.0388  15.1221  15.2730  16.7982

     occupation numbers 
     1.0000   1.0000   1.0000   1.0000   1.0000   1.0000   1.0000   1.0000
     1.0000   1.0000   1.0000   1.0000   1.0000   1.0000   1.0000   1.0000
     1.0000   1.0000   1.0000   1.0000   1.0000   1.0000   1.0000   1.0000
     1.0000   1.0000   0.0000   0.0000   0.0000   0.0000   0.0000

          k = 0.2500 0.4330 0.2325 (  2160 PWs)   bands (ev):

  -116.2854-116.2854 -70.4799 -70.4797 -70.4771 -70.4771 -70.4767 -70.4766
    -9.5933  -9.5221   1.7833   1.7951   2.0709   2.1266   2.2731   2.2835
     2.7247   2.7736   2.8947   2.9805   3.7104   3.9361   4.8879   5.3863
     5.6990   6.1428  12.8037  13.6049  15.2203  15.3157  16.5133

     occupation numbers 
     1.0000   1.0000   1.0000   1.0000   1.0000   1.0000   1.0000   1.0000
     1.0000   1.0000   1.0000   1.0000   1.0000   1.0000   1.0000   1.0000
     1.0000   1.0000   1.0000   1.0000   1.0000   1.0000   1.0000   1.0000
     1.0000   1.0000   0.0000   0.0000   0.0000   0.0000   0.0000

          k = 0.2500 0.4330-0.3100 (  2154 PWs)   bands (ev):

  -116.2854-116.2854 -70.4798 -70.4798 -70.4770 -70.4770 -70.4767 -70.4767
    -9.5569  -9.5569   1.7652   1.7652   2.0951   2.0951   2.2544   2.2544
     2.7604   2.7604   2.9318   2.9318   3.8224   3.8224   5.1544   5.1544
     5.9816   5.9816  13.1558  13.1558  15.3079  15.3079  16.4651

     occupation numbers 
     1.0000   1.0000   1.0000   1.0000   1.0000   1.0000   1.0000   1.0000
     1.0000   1.0000   1.0000   1.0000   1.0000   1.0000   1.0000   1.0000
     1.0000   1.0000   1.0000   1.0000   1.0000   1.0000   1.0000   1.0000
     1.0000   1.0000   0.0000   0.0000   0.0000   0.0000   0.0000

          k = 0.2500 0.5292 0.0000 (  2151 PWs)   bands (ev):

  -116.2854-116.2854 -70.4798 -70.4795 -70.4773 -70.4771 -70.4769 -70.4765
    -9.5770  -9.4832   1.7988   2.0533   2.2067   2.3626   2.4873   2.5482
     2.6515   2.6914   2.8823   2.9551   3.5568   3.8650   4.0824   5.0499
     5.6509   5.7795  13.3285  14.4338  14.7317  15.0030  17.2443

     occupation numbers 
     1.0000   1.0000   1.0000   1.0000   1.0000   1.0000   1.0000   1.0000
     1.0000   1.0000   1.0000   1.0000   1.0000   1.0000   1.0000   1.0000
     1.0000   1.0000   1.0000   1.0000   1.0000   1.0000   1.0000   1.0000
     1.0000   1.0000   0.0000   0.0000   0.0000   0.0000   0.0000

          k = 0.2500 0.5292 0.0775 (  2155 PWs)   bands (ev):

  -116.2854-116.2854 -70.4798 -70.4795 -70.4773 -70.4771 -70.4769 -70.4766
    -9.5725  -9.4858   1.8080   2.0268   2.1599   2.3336   2.4583   2.5073
     2.6519   2.7220   2.8935   2.9825   3.5421   3.8587   4.1294   5.1672
     5.6360   5.8088  13.3381  14.3972  14.7719  15.0142  16.8845

     occupation numbers 
     1.0000   1.0000   1.0000   1.0000   1.0000   1.0000   1.0000   1.0000
     1.0000   1.0000   1.0000   1.0000   1.0000   1.0000   1.0000   1.0000
     1.0000   1.0000   1.0000   1.0000   1.0000   1.0000   1.0000   1.0000
     1.0000   1.0000   0.0000   0.0000   0.0000   0.0000   0.0000

          k = 0.2500 0.5292 0.1550 (  2156 PWs)   bands (ev):

  -116.2854-116.2854 -70.4799 -70.4796 -70.4772 -70.4771 -70.4769 -70.4766
    -9.5601  -9.4936   1.8266   1.9632   2.0547   2.2746   2.4018   2.4350
     2.6822   2.7361   2.9294   3.0261   3.5309   3.7953   4.3096   5.3928
     5.5401   5.9475  13.3871  14.2857  14.8603  15.0479  16.2784

     occupation numbers 
     1.0000   1.0000   1.0000   1.0000   1.0000   1.0000   1.0000   1.0000
     1.0000   1.0000   1.0000   1.0000   1.0000   1.0000   1.0000   1.0000
     1.0000   1.0000   1.0000   1.0000   1.0000   1.0000   1.0000   1.0000
     1.0000   1.0000   0.0000   0.0000   0.0000   0.0000   0.0000

          k = 0.2500 0.5292 0.2325 (  2158 PWs)   bands (ev):

  -116.2854-116.2854 -70.4798 -70.4797 -70.4772 -70.4771 -70.4768 -70.4767
    -9.5426  -9.5066   1.8254   1.8844   2.0179   2.1813   2.3708   2.3904
     2.7057   2.7331   2.9780   3.0401   3.5574   3.7044   4.5831   5.1963
     5.7938   6.0513  13.5227  14.0671  14.9555  15.0793  15.8953

     occupation numbers 
     1.0000   1.0000   1.0000   1.0000   1.0000   1.0000   1.0000   1.0000
     1.0000   1.0000   1.0000   1.0000   1.0000   1.0000   1.0000   1.0000
     1.0000   1.0000   1.0000   1.0000   1.0000   1.0000   1.0000   1.0000
     1.0000   1.0000   0.0000   0.0000   0.0000   0.0000   0.0000

          k = 0.2500 0.5292-0.3100 (  2166 PWs)   bands (ev):

  -116.2854-116.2854 -70.4798 -70.4798 -70.4771 -70.4771 -70.4768 -70.4768
    -9.5236  -9.5236   1.8290   1.8290   2.0819   2.0819   2.3699   2.3699
     2.7221   2.7221   3.0197   3.0197   3.6199   3.6199   4.8938   4.8938
     6.0059   6.0059  13.7707  13.7707  15.0397  15.0397  15.9353

     occupation numbers 
     1.0000   1.0000   1.0000   1.0000   1.0000   1.0000   1.0000   1.0000
     1.0000   1.0000   1.0000   1.0000   1.0000   1.0000   1.0000   1.0000
     1.0000   1.0000   1.0000   1.0000   1.0000   1.0000   1.0000   1.0000
     1.0000   1.0000   0.0000   0.0000   0.0000   0.0000   0.0000

          k = 0.3333 0.5774 0.0000 (  2139 PWs)   bands (ev):

  -116.2854-116.2854 -70.4796 -70.4796 -70.4772 -70.4770 -70.4770 -70.4766
    -9.5185  -9.5185   1.7991   2.1407   2.1407   2.4870   2.5960   2.5960
     2.6355   2.7126   2.8542   2.8542   3.7374   3.7430   3.7430   5.3934
     5.3934   5.5787  14.0752  14.0752  14.7167  14.9559  17.2680

     occupation numbers 
     1.0000   1.0000   1.0000   1.0000   1.0000   1.0000   1.0000   1.0000
     1.0000   1.0000   1.0000   1.0000   1.0000   1.0000   1.0000   1.0000
     1.0000   1.0000   1.0000   1.0000   1.0000   1.0000   1.0000   1.0000
     1.0000   1.0000   0.0000   0.0000   0.0000   0.0000   0.0000

          k = 0.3333 0.5774 0.0775 (  2163 PWs)   bands (ev):

  -116.2854-116.2854 -70.4797 -70.4797 -70.4772 -70.4771 -70.4771 -70.4767
    -9.5175  -9.5175   1.8141   2.1057   2.1057   2.4329   2.5506   2.5506
     2.6388   2.7097   2.9050   2.9051   3.7143   3.7143   3.8285   5.4915
     5.4915   5.5111  14.0994  14.0994  14.7364  14.9532  16.9143

     occupation numbers 
     1.0000   1.0000   1.0000   1.0000   1.0000   1.0000   1.0000   1.0000
     1.0000   1.0000   1.0000   1.0000   1.0000   1.0000   1.0000   1.0000
     1.0000   1.0000   1.0000   1.0000   1.0000   1.0000   1.0000   1.0000
     1.0000   1.0000   0.0000   0.0000   0.0000   0.0000   0.0000

          k = 0.3333 0.5774 0.1550 (  2160 PWs)   bands (ev):

  -116.2854-116.2854 -70.4797 -70.4797 -70.4772 -70.4770 -70.4770 -70.4768
    -9.5151  -9.5151   1.8593   2.0181   2.0181   2.3081   2.4897   2.4897
     2.6476   2.7016   2.9862   2.9862   3.6559   3.6559   4.0614   5.3210
     5.7168   5.7168  14.1758  14.1758  14.7853  14.9438  16.2397

     occupation numbers 
     1.0000   1.0000   1.0000   1.0000   1.0000   1.0000   1.0000   1.0000
     1.0000   1.0000   1.0000   1.0000   1.0000   1.0000   1.0000   1.0000
     1.0000   1.0000   1.0000   1.0000   1.0000   1.0000   1.0000   1.0000
     1.0000   1.0000   0.0000   0.0000   0.0000   0.0000   0.0000

          k = 0.3333 0.5774 0.2325 (  2163 PWs)   bands (ev):

  -116.2854-116.2854 -70.4798 -70.4798 -70.4771 -70.4770 -70.4770 -70.4769
    -9.5127  -9.5127   1.9306   1.9306   1.9346   2.1670   2.4558   2.4558
     2.6602   2.6894   3.0448   3.0448   3.6075   3.6075   4.3716   5.0409
     5.9316   5.9316  14.3014  14.3014  14.8424  14.9243  15.6414

     occupation numbers 
     1.0000   1.0000   1.0000   1.0000   1.0000   1.0000   1.0000   1.0000
     1.0000   1.0000   1.0000   1.0000   1.0000   1.0000   1.0000   1.0000
     1.0000   1.0000   1.0000   1.0000   1.0000   1.0000   1.0000   1.0000
     1.0000   1.0000   0.0000   0.0000   0.0000   0.0000   0.0000

          k = 0.3333 0.5774-0.3100 (  2172 PWs)   bands (ev):

  -116.2854-116.2854 -70.4798 -70.4798 -70.4770 -70.4770 -70.4770 -70.4770
    -9.5117  -9.5117   1.8952   1.8952   2.0386   2.0386   2.4456   2.4456
     2.6748   2.6748   3.0658   3.0658   3.5894   3.5894   4.7112   4.7112
     6.0186   6.0186  14.3890  14.3890  14.8908  14.8908  15.3782

     occupation numbers 
     1.0000   1.0000   1.0000   1.0000   1.0000   1.0000   1.0000   1.0000
     1.0000   1.0000   1.0000   1.0000   1.0000   1.0000   1.0000   1.0000
     1.0000   1.0000   1.0000   1.0000   1.0000   1.0000   1.0000   1.0000
     1.0000   1.0000   0.0000   0.0000   0.0000   0.0000   0.0000

     the Fermi energy is     7.5877 ev

     WARNING: integrated charge=    52.00041219, expected=    52.00000000

!    total energy              =   -1006.56334159 Ry
     estimated scf accuracy    <          8.8E-10 Ry
     smearing contrib. (-TS)   =       0.00000405 Ry
     internal energy E=F+TS    =   -1006.56334564 Ry

     The total energy is F=E-TS. E is the sum of the following terms:
     one-electron contribution =    -837.21641931 Ry
     hartree contribution      =     437.61670524 Ry
     xc contribution           =     -99.30078207 Ry
     ewald contribution        =    -488.62549086 Ry
     one-center paw contrib.   =     -19.03735863 Ry
      -> PAW hartree energy AE =      51.53886509 Ry
      -> PAW hartree energy PS =     -51.29753109 Ry
      -> PAW xc energy AE      =     -33.21927719 Ry
      -> PAW xc energy PS      =      13.94058455 Ry
      -> total E_H with PAW    =     437.85803924 Ry
      -> total E_XC with PAW   =    -118.57947471 Ry

     convergence has been achieved in  10 iterations

     Forces acting on atoms (cartesian axes, Ry/au):

     atom    1 type  2   force =    -0.00000000   -0.00000000   -0.00015396
     atom    2 type  2   force =     0.00000000   -0.00000000   -0.00015396
     atom    3 type  1   force =     0.00000000    0.00000000    0.00015396
     atom    4 type  1   force =     0.00000000   -0.00000000    0.00015396
     The non-local contrib.  to forces
     atom    1 type  2   force =     0.00000000   -0.00000000   -0.01142235
     atom    2 type  2   force =     0.00000000    0.00000000   -0.01142235
     atom    3 type  1   force =    -0.00000000    0.00000000    0.00505543
     atom    4 type  1   force =     0.00000000   -0.00000000    0.00505543
     The ionic contribution  to forces
     atom    1 type  2   force =    -0.00000057    0.00000033    0.07746689
     atom    2 type  2   force =     0.00000057   -0.00000033    0.07746689
     atom    3 type  1   force =    -0.00000049    0.00000028   -0.07746689
     atom    4 type  1   force =     0.00000049   -0.00000028   -0.07746689
     The local contribution  to forces
     atom    1 type  2   force =    -0.00001011    0.00000583   -0.06618929
     atom    2 type  2   force =     0.00003032   -0.00001750   -0.06618989
     atom    3 type  1   force =    -0.00000060    0.00000034    0.07264283
     atom    4 type  1   force =     0.00000179   -0.00000103    0.07264380
     The core correction contribution to forces
     atom    1 type  2   force =     0.00000000    0.00000000    0.00000000
     atom    2 type  2   force =     0.00000000    0.00000000    0.00000000
     atom    3 type  1   force =    -0.00000000    0.00000000   -0.00007333
     atom    4 type  1   force =     0.00000000   -0.00000000   -0.00007333
     The Hubbard contrib.    to forces
     atom    1 type  2   force =     0.00000000    0.00000000    0.00000000
     atom    2 type  2   force =     0.00000000    0.00000000    0.00000000
     atom    3 type  1   force =     0.00000000    0.00000000    0.00000000
     atom    4 type  1   force =     0.00000000    0.00000000    0.00000000
     The SCF correction term to forces
     atom    1 type  2   force =     0.00000000   -0.00000000   -0.00000600
     atom    2 type  2   force =    -0.00000000    0.00000000   -0.00000600
     atom    3 type  1   force =     0.00000000   -0.00000000   -0.00000167
     atom    4 type  1   force =    -0.00000000    0.00000000   -0.00000167

     Total force =     0.000308     Total SCF correction =     0.000009


     Computing stress (Cartesian axis) and pressure

          total   stress  (Ry/bohr**3)                   (kbar)     P=      -86.11
  -0.00058929  -0.00000000   0.00000000          -86.69       -0.00        0.00
  -0.00000000  -0.00058929   0.00000000           -0.00      -86.69        0.00
   0.00000000   0.00000000  -0.00057750            0.00        0.00      -84.95

     kinetic stress (kbar)  30992.77     -0.00      0.00
                               -0.00  30992.77     -0.00
                                0.00     -0.00  31016.82

     local   stress (kbar)  -9291.52     -0.00     -0.00
                               -0.00  -9291.52      0.00
                               -0.00      0.00 -12874.12

     nonloc. stress (kbar)   -686.90      0.00      0.00
                                0.00   -686.90      0.00
                                0.00      0.00   -696.89

     hartree stress (kbar)  59071.56     -0.00      0.00
                               -0.00  59071.56      0.00
                                0.00      0.00  60782.59

     exc-cor stress (kbar) -12612.10      0.00     -0.00
                                0.00 -12612.10      0.00
                               -0.00      0.00 -12612.23

     corecor stress (kbar)   -346.90     -0.00      0.00
                               -0.00   -346.90     -0.00
                                0.00     -0.00   -346.93

     ewald   stress (kbar) -67213.59      0.00      0.00
                                0.00 -67213.59     -0.00
                                0.00     -0.00 -65354.19

     hubbard stress (kbar)      0.00      0.00      0.00
                                0.00      0.00      0.00
                                0.00      0.00      0.00

     DFT-D   stress (kbar)      0.00      0.00      0.00
                                0.00      0.00      0.00
                                0.00      0.00      0.00

     XDM     stress (kbar)      0.00      0.00      0.00
                                0.00      0.00      0.00
                                0.00      0.00      0.00

     dft-nl  stress (kbar)      0.00      0.00      0.00
                                0.00      0.00      0.00
                                0.00      0.00      0.00

     TS-vdW  stress (kbar)      0.00      0.00      0.00
                                0.00      0.00      0.00
                                0.00      0.00      0.00

     MDB     stress (kbar)      0.00      0.00      0.00
                                0.00      0.00      0.00
                                0.00      0.00      0.00

     3D-RISM stress (kbar)      0.00      0.00      0.00
                                0.00      0.00      0.00
                                0.00      0.00      0.00


     Writing all to output data dir ./temp_hexag/aiida.save/ :
     XML data file, charge density, pseudopotentials, collected wavefunctions

     init_run     :    154.52s CPU      7.32s WALL (       1 calls)
     electrons    :   5002.09s CPU    235.66s WALL (       1 calls)
     forces       :    129.56s CPU      5.71s WALL (       1 calls)
     stress       :     77.64s CPU      4.00s WALL (       1 calls)

     Called by init_run:
     wfcinit      :    150.56s CPU      6.87s WALL (       1 calls)
     wfcinit:atom :      1.83s CPU      0.08s WALL (      95 calls)
     wfcinit:wfcr :    144.28s CPU      6.46s WALL (      95 calls)
     potinit      :      1.19s CPU      0.08s WALL (       1 calls)
     hinit0       :      1.21s CPU      0.22s WALL (       1 calls)

     Called by electrons:
     c_bands      :   4245.78s CPU    202.05s WALL (      10 calls)
     sum_band     :    728.31s CPU     31.59s WALL (      10 calls)
     v_of_rho     :      6.29s CPU      0.30s WALL (      11 calls)
     v_h          :      0.34s CPU      0.04s WALL (      11 calls)
     v_xc         :      7.06s CPU      0.31s WALL (      13 calls)
     newd         :     12.44s CPU      1.29s WALL (      11 calls)
     PAW_pot      :      9.75s CPU      0.40s WALL (      11 calls)
     mix_rho      :      1.20s CPU      0.07s WALL (      10 calls)

     Called by c_bands:
     init_us_2    :     32.02s CPU      1.79s WALL (    2185 calls)
     cegterg      :   4174.46s CPU    198.51s WALL (     950 calls)

     Called by sum_band:
     sum_band:wei :      0.34s CPU      0.02s WALL (      10 calls)
     sum_band:loo :    722.63s CPU     30.25s WALL (      10 calls)
     sum_band:buf :      2.37s CPU      0.12s WALL (     950 calls)
     sum_band:ini :     14.01s CPU      0.62s WALL (     950 calls)
     sum_band:cal :    119.75s CPU      4.66s WALL (     950 calls)
     sum_band:bec :     28.76s CPU      1.13s WALL (     950 calls)
     addusdens    :      4.73s CPU      1.21s WALL (      10 calls)
                                        0.00s GPU  (      10 calls)
     addusd:skk   :      0.00s CPU      0.00s WALL (      20 calls)
                                        0.00s GPU  (      20 calls)

     Called by *egterg:
     cdiaghg      :     41.58s CPU      2.64s WALL (    3464 calls)
     cegterg:over :    269.40s CPU     12.00s WALL (    2514 calls)
     cegterg:upda :    113.80s CPU      9.24s WALL (    2514 calls)
     cegterg:last :    109.32s CPU     14.89s WALL (    1900 calls)
     h_psi        :   3310.93s CPU    142.89s WALL (    3559 calls)
     s_psi        :    242.57s CPU     12.34s WALL (    3559 calls)
     g_psi        :     26.99s CPU      1.31s WALL (    2514 calls)

     Called by h_psi:
     h_psi:calbec :    291.20s CPU     11.32s WALL (    3559 calls)
     vloc_psi     :   2702.21s CPU    117.69s WALL (    3559 calls)
     add_vuspsi   :    281.88s CPU     11.98s WALL (    3559 calls)

     General routines
     calbec       :    471.06s CPU     18.47s WALL (    4984 calls)
     fft          :      5.59s CPU      0.31s WALL (     166 calls)
     ffts         :      0.01s CPU      0.01s WALL (      21 calls)
     fftw         :   1095.39s CPU     49.74s WALL (  172548 calls)
     interpolate  :      0.35s CPU      0.02s WALL (      11 calls)

     Parallel routines

     PAW routines
     PAW_pot      :      9.75s CPU      0.40s WALL (      11 calls)
     PAW_symme    :      0.00s CPU      0.00s WALL (      21 calls)

     PWSCF        :      1h29m CPU   4m14.97s WALL


   This run was terminated on:  23:17:32  11Jun2024            

=------------------------------------------------------------------------------=
   JOB DONE.
=------------------------------------------------------------------------------=
