
     Program PWSCF v.7.3.1 starts on  9Jun2024 at 15:50:43 

     This program is part of the open-source Quantum ESPRESSO suite
     for quantum simulation of materials; please cite
         "P. Giannozzi et al., J. Phys.:Condens. Matter 21 395502 (2009);
         "P. Giannozzi et al., J. Phys.:Condens. Matter 29 465901 (2017);
         "P. Giannozzi et al., J. Chem. Phys. 152 154105 (2020);
          URL http://www.quantum-espresso.org", 
     in publications or presentations arising from this work. More details at
     http://www.quantum-espresso.org/quote

     Parallel version (MPI & OpenMP), running on      24 processor cores
     Number of MPI processes:                 1
     Threads/MPI process:                    24

     MPI processes distributed on     1 nodes
     5065 MiB available memory on the printing compute node when the environment starts

     Waiting for input...
     Reading input from standard input

     Current dimensions of program PWSCF are:
     Max number of different atomic species (ntypx) = 10
     Max number of k-points (npk) =  40000
     Max angular momentum in pseudopotentials (lmaxx) =  4
     file O.pbe-n-kjpaw_psl.0.1.UPF: wavefunction(s)  2P renormalized
     Message from routine setup:
     using ibrav=0 with symmetry is DISCOURAGED, use correct ibrav instead

     Subspace diagonalization in iterative solution of the eigenvalue problem:
     a serial algorithm will be used


     G-vector sticks info
     --------------------
     sticks:   dense  smooth     PW     G-vecs:    dense   smooth      PW
     Sum        1039     511    163                43245    15267    2599

     Using Slab Decomposition



     bravais-lattice index     =            0
     lattice parameter (alat)  =       6.1177  a.u.
     unit-cell volume          =     319.8518 (a.u.)^3
     number of atoms/cell      =            4
     number of atomic types    =            2
     number of electrons       =        52.00
     number of Kohn-Sham states=           31
     kinetic-energy cutoff     =      50.0000  Ry
     charge density cutoff     =     400.0000  Ry
     scf convergence threshold =      2.0E-08
     mixing beta               =       0.4000
     number of iterations used =            8  plain     mixing
     Exchange-correlation= SLA  PW   PBE  PBE
                           (   1   4   3   4   0   0   0)

     celldm(1)=   6.117707  celldm(2)=   0.000000  celldm(3)=   0.000000
     celldm(4)=   0.000000  celldm(5)=   0.000000  celldm(6)=   0.000000

     crystal axes: (cart. coord. in units of alat)
               a(1) = (   1.000000   0.000000   0.000000 )  
               a(2) = (  -0.500000   0.866025   0.000000 )  
               a(3) = (   0.000000   0.000000   1.613066 )  

     reciprocal axes: (cart. coord. in units 2 pi/alat)
               b(1) = (  1.000000  0.577350 -0.000000 )  
               b(2) = (  0.000000  1.154701  0.000000 )  
               b(3) = (  0.000000 -0.000000  0.619937 )  


     PseudoPot. # 1 for O  read from file:
     ../SSSP_1.3.0_PBE_efficiency/O.pbe-n-kjpaw_psl.0.1.UPF
     MD5 check sum: 0234752ac141de4415c5fc33072bef88
     Pseudo is Projector augmented-wave + core cor, Zval =  6.0
     Generated using "atomic" code by A. Dal Corso  v.5.0.99 svn rev. 10869
     Shape of augmentation charge: BESSEL
     Using radial grid of 1095 points,  4 beta functions with: 
                l(1) =   0
                l(2) =   0
                l(3) =   1
                l(4) =   1
     Q(r) pseudized with 0 coefficients 


     PseudoPot. # 2 for Zn read from file:
     ../SSSP_1.3.0_PBE_efficiency/Zn_pbe_v1.uspp.F.UPF
     MD5 check sum: df62231357ef9e81f77b2b3087fa5675
     Pseudo is Ultrasoft, Zval = 20.0
     Generated by new atomic code, or converted to UPF format
     Using radial grid of  943 points,  6 beta functions with: 
                l(1) =   0
                l(2) =   0
                l(3) =   1
                l(4) =   1
                l(5) =   2
                l(6) =   2
     Q(r) pseudized with  8 coefficients,  rinner =    1.100   1.100   1.100
                                                       1.100   1.100

     atomic species   valence    mass     pseudopotential
     O                 6.00    15.99940     O ( 1.00)
     Zn               20.00    65.38000     Zn( 1.00)

     12 Sym. Ops. (no inversion) found ( 6 have fractional translation)


                                    s                        frac. trans.

      isym =  1     identity                                     

 cryst.   s( 1) = (     1          0          0      )
                  (     0          1          0      )
                  (     0          0          1      )

 cart.    s( 1) = (  1.0000000  0.0000000  0.0000000 )
                  (  0.0000000  1.0000000  0.0000000 )
                  (  0.0000000  0.0000000  1.0000000 )


      isym =  2     180 deg rotation - cart. axis [0,0,1]        

 cryst.   s( 2) = (    -1          0          0      )    f =(  0.0000000 )
                  (     0         -1          0      )       ( -0.0000000 )
                  (     0          0          1      )       (  0.5000000 )

 cart.    s( 2) = ( -1.0000000  0.0000000  0.0000000 )    f =(  0.0000000 )
                  (  0.0000000 -1.0000000  0.0000000 )       ( -0.0000000 )
                  (  0.0000000  0.0000000  1.0000000 )       (  0.8065331 )


      isym =  3      60 deg rotation - cryst. axis [0,0,1]       

 cryst.   s( 3) = (     1          1          0      )    f =( -0.0000000 )
                  (    -1          0          0      )       (  0.0000000 )
                  (     0          0          1      )       (  0.5000000 )

 cart.    s( 3) = (  0.5000000 -0.8660254  0.0000000 )    f =( -0.0000000 )
                  (  0.8660254  0.5000000  0.0000000 )       (  0.0000000 )
                  (  0.0000000  0.0000000  1.0000000 )       (  0.8065331 )


      isym =  4      60 deg rotation - cryst. axis [0,0,-1]      

 cryst.   s( 4) = (     0         -1          0      )    f =(  0.0000000 )
                  (     1          1          0      )       (  0.0000000 )
                  (     0          0          1      )       (  0.5000000 )

 cart.    s( 4) = (  0.5000000  0.8660254  0.0000000 )    f =( -0.0000000 )
                  ( -0.8660254  0.5000000  0.0000000 )       (  0.0000000 )
                  (  0.0000000  0.0000000  1.0000000 )       (  0.8065331 )


      isym =  5     120 deg rotation - cryst. axis [0,0,1]       

 cryst.   s( 5) = (     0          1          0      )
                  (    -1         -1          0      )
                  (     0          0          1      )

 cart.    s( 5) = ( -0.5000000 -0.8660254  0.0000000 )
                  (  0.8660254 -0.5000000  0.0000000 )
                  (  0.0000000  0.0000000  1.0000000 )


      isym =  6     120 deg rotation - cryst. axis [0,0,-1]      

 cryst.   s( 6) = (    -1         -1          0      )
                  (     1          0          0      )
                  (     0          0          1      )

 cart.    s( 6) = ( -0.5000000  0.8660254  0.0000000 )
                  ( -0.8660254 -0.5000000  0.0000000 )
                  (  0.0000000  0.0000000  1.0000000 )


      isym =  7     inv. 180 deg rotation - cart. axis [0,1,0]   

 cryst.   s( 7) = (     1          0          0      )    f =( -0.0000000 )
                  (    -1         -1          0      )       ( -0.0000000 )
                  (     0          0          1      )       (  0.5000000 )

 cart.    s( 7) = (  1.0000000  0.0000000  0.0000000 )    f =( -0.0000000 )
                  (  0.0000000 -1.0000000  0.0000000 )       ( -0.0000000 )
                  (  0.0000000  0.0000000  1.0000000 )       (  0.8065331 )


      isym =  8     inv. 180 deg rotation - cart. axis [1,0,0]   

 cryst.   s( 8) = (    -1          0          0      )
                  (     1          1          0      )
                  (     0          0          1      )

 cart.    s( 8) = ( -1.0000000  0.0000000  0.0000000 )
                  (  0.0000000  1.0000000  0.0000000 )
                  (  0.0000000  0.0000000  1.0000000 )


      isym =  9     inv. 180 deg rotation - cryst. axis [1,-1,0] 

 cryst.   s( 9) = (     0          1          0      )    f =(  0.0000000 )
                  (     1          0          0      )       (  0.0000000 )
                  (     0          0          1      )       (  0.5000000 )

 cart.    s( 9) = ( -0.5000000  0.8660254  0.0000000 )    f =(  0.0000000 )
                  (  0.8660254  0.5000000  0.0000000 )       (  0.0000000 )
                  (  0.0000000  0.0000000  1.0000000 )       (  0.8065331 )


      isym = 10     inv. 180 deg rotation - cryst. axis [2,1,0]  

 cryst.   s(10) = (    -1         -1          0      )    f =(  0.0000000 )
                  (     0          1          0      )       (  0.0000000 )
                  (     0          0          1      )       (  0.5000000 )

 cart.    s(10) = ( -0.5000000 -0.8660254  0.0000000 )    f =( -0.0000000 )
                  ( -0.8660254  0.5000000  0.0000000 )       (  0.0000000 )
                  (  0.0000000  0.0000000  1.0000000 )       (  0.8065331 )


      isym = 11     inv. 180 deg rotation - cryst. axis [0,1,0]  

 cryst.   s(11) = (     1          1          0      )
                  (     0         -1          0      )
                  (     0          0          1      )

 cart.    s(11) = (  0.5000000  0.8660254  0.0000000 )
                  (  0.8660254 -0.5000000  0.0000000 )
                  (  0.0000000  0.0000000  1.0000000 )


      isym = 12     inv. 180 deg rotation - cryst. axis [1,1,0]  

 cryst.   s(12) = (     0         -1          0      )
                  (    -1          0          0      )
                  (     0          0          1      )

 cart.    s(12) = (  0.5000000 -0.8660254  0.0000000 )
                  ( -0.8660254 -0.5000000  0.0000000 )
                  (  0.0000000  0.0000000  1.0000000 )


   Cartesian axes

     site n.     atom                  positions (alat units)
         1        Zn     tau(   1) = (   0.5000000   0.2886751   0.8074875  )
         2        Zn     tau(   2) = (  -0.0000000   0.5773503   0.0009545  )
         3        O      tau(   3) = (   0.5000000   0.2886751   1.4190438  )
         4        O      tau(   4) = (  -0.0000000   0.5773503   0.6125107  )

   Crystallographic axes

     site n.     atom                  positions (cryst. coord.)
         1        Zn     tau(   1) = (  0.6666667  0.3333333  0.5005917  )
         2        Zn     tau(   2) = (  0.3333333  0.6666667  0.0005917  )
         3        O      tau(   3) = (  0.6666667  0.3333333  0.8797183  )
         4        O      tau(   4) = (  0.3333333  0.6666667  0.3797183  )

     number of k points=    21  Marzari-Vanderbilt smearing, width (Ry)=  0.0147
                       cart. coord. in units 2pi/alat
        k(    1) = (   0.0000000   0.0000000   0.0000000), wk =   0.0138889
        k(    2) = (   0.0000000   0.0000000   0.1549843), wk =   0.0277778
        k(    3) = (   0.0000000   0.0000000  -0.3099687), wk =   0.0138889
        k(    4) = (   0.0000000   0.1924501   0.0000000), wk =   0.0833333
        k(    5) = (   0.0000000   0.1924501   0.1549843), wk =   0.1666667
        k(    6) = (   0.0000000   0.1924501  -0.3099687), wk =   0.0833333
        k(    7) = (   0.0000000   0.3849002   0.0000000), wk =   0.0833333
        k(    8) = (   0.0000000   0.3849002   0.1549843), wk =   0.1666667
        k(    9) = (   0.0000000   0.3849002  -0.3099687), wk =   0.0833333
        k(   10) = (   0.0000000  -0.5773503   0.0000000), wk =   0.0416667
        k(   11) = (   0.0000000  -0.5773503   0.1549843), wk =   0.0833333
        k(   12) = (   0.0000000  -0.5773503  -0.3099687), wk =   0.0416667
        k(   13) = (   0.1666667   0.2886751   0.0000000), wk =   0.0833333
        k(   14) = (   0.1666667   0.2886751   0.1549843), wk =   0.1666667
        k(   15) = (   0.1666667   0.2886751  -0.3099687), wk =   0.0833333
        k(   16) = (   0.1666667   0.4811252   0.0000000), wk =   0.1666667
        k(   17) = (   0.1666667   0.4811252   0.1549843), wk =   0.3333333
        k(   18) = (   0.1666667   0.4811252  -0.3099687), wk =   0.1666667
        k(   19) = (   0.3333333   0.5773503   0.0000000), wk =   0.0277778
        k(   20) = (   0.3333333   0.5773503   0.1549843), wk =   0.0555556
        k(   21) = (   0.3333333   0.5773503  -0.3099687), wk =   0.0277778

                       cryst. coord.
        k(    1) = (   0.0000000   0.0000000   0.0000000), wk =   0.0138889
        k(    2) = (   0.0000000   0.0000000   0.2500000), wk =   0.0277778
        k(    3) = (   0.0000000   0.0000000  -0.5000000), wk =   0.0138889
        k(    4) = (   0.0000000   0.1666667   0.0000000), wk =   0.0833333
        k(    5) = (   0.0000000   0.1666667   0.2500000), wk =   0.1666667
        k(    6) = (   0.0000000   0.1666667  -0.5000000), wk =   0.0833333
        k(    7) = (   0.0000000   0.3333333   0.0000000), wk =   0.0833333
        k(    8) = (   0.0000000   0.3333333   0.2500000), wk =   0.1666667
        k(    9) = (   0.0000000   0.3333333  -0.5000000), wk =   0.0833333
        k(   10) = (   0.0000000  -0.5000000   0.0000000), wk =   0.0416667
        k(   11) = (   0.0000000  -0.5000000   0.2500000), wk =   0.0833333
        k(   12) = (   0.0000000  -0.5000000  -0.5000000), wk =   0.0416667
        k(   13) = (   0.1666667   0.1666667   0.0000000), wk =   0.0833333
        k(   14) = (   0.1666667   0.1666667   0.2500000), wk =   0.1666667
        k(   15) = (   0.1666667   0.1666667  -0.5000000), wk =   0.0833333
        k(   16) = (   0.1666667   0.3333333   0.0000000), wk =   0.1666667
        k(   17) = (   0.1666667   0.3333333   0.2500000), wk =   0.3333333
        k(   18) = (   0.1666667   0.3333333  -0.5000000), wk =   0.1666667
        k(   19) = (   0.3333333   0.3333333   0.0000000), wk =   0.0277778
        k(   20) = (   0.3333333   0.3333333   0.2500000), wk =   0.0555556
        k(   21) = (   0.3333333   0.3333333  -0.5000000), wk =   0.0277778

     Dense  grid:    43245 G-vectors     FFT dimensions: (  40,  40,  64)

     Smooth grid:    15267 G-vectors     FFT dimensions: (  27,  27,  48)

     Dynamical RAM for                 wfc:       0.90 MB

     Dynamical RAM for     wfc (w. buffer):      19.88 MB

     Dynamical RAM for           str. fact:       1.32 MB

     Dynamical RAM for           local pot:       0.00 MB

     Dynamical RAM for          nlocal pot:       1.52 MB

     Dynamical RAM for                qrad:       3.21 MB

     Dynamical RAM for          rho,v,vnew:       4.32 MB

     Dynamical RAM for               rhoin:       1.44 MB

     Dynamical RAM for            rho*nmix:      10.56 MB

     Dynamical RAM for           G-vectors:       2.59 MB

     Dynamical RAM for          h,s,v(r/c):       0.18 MB

     Dynamical RAM for          <psi|beta>:       0.02 MB

     Dynamical RAM for                 psi:       1.81 MB

     Dynamical RAM for                hpsi:       1.81 MB

     Dynamical RAM for                spsi:       1.81 MB

     Dynamical RAM for      wfcinit/wfcrot:       2.01 MB

     Dynamical RAM for           addusdens:     124.05 MB

     Dynamical RAM for          addusforce:     125.71 MB

     Dynamical RAM for         addusstress:     132.63 MB

     Estimated static dynamical RAM per process >      40.16 MB

     Estimated max dynamical RAM per process >     183.35 MB

     Check: negative core charge=   -0.000003

     Initial potential from superposition of free atoms

     starting charge      51.9997, renormalised to      52.0000
     Starting wfcs are   34 randomized atomic wfcs
     Checking if some PAW data can be deallocated... 

     total cpu time spent up to now is        2.7 secs

     Self-consistent Calculation

     iteration #  1     ecut=    50.00 Ry     beta= 0.40
     Davidson diagonalization with overlap

---- Real-time Memory Report at c_bands before calling an iterative solver
           173 MiB given to the printing process from OS
             0 MiB allocation reported by mallinfo(arena+hblkhd)
          5027 MiB available memory on the node where the printing process lives
------------------
     ethr =  1.00E-02,  avg # of iterations =  3.0

     total cpu time spent up to now is        7.7 secs

     total energy              =   -1006.32272833 Ry
     estimated scf accuracy    <       0.85187432 Ry

     iteration #  2     ecut=    50.00 Ry     beta= 0.40
     Davidson diagonalization with overlap

---- Real-time Memory Report at c_bands before calling an iterative solver
           223 MiB given to the printing process from OS
             0 MiB allocation reported by mallinfo(arena+hblkhd)
          4984 MiB available memory on the node where the printing process lives
------------------
     ethr =  1.64E-03,  avg # of iterations =  2.0

     total cpu time spent up to now is       11.2 secs

     WARNING: integrated charge=    52.00113332, expected=    52.00000000

     total energy              =   -1006.55199157 Ry
     estimated scf accuracy    <       0.10059032 Ry

     iteration #  3     ecut=    50.00 Ry     beta= 0.40
     Davidson diagonalization with overlap

---- Real-time Memory Report at c_bands before calling an iterative solver
           224 MiB given to the printing process from OS
             0 MiB allocation reported by mallinfo(arena+hblkhd)
          4982 MiB available memory on the node where the printing process lives
------------------
     ethr =  1.93E-04,  avg # of iterations =  2.2

     total cpu time spent up to now is       14.7 secs

     WARNING: integrated charge=    52.00079102, expected=    52.00000000

     total energy              =   -1006.56759130 Ry
     estimated scf accuracy    <       0.00920010 Ry

     iteration #  4     ecut=    50.00 Ry     beta= 0.40
     Davidson diagonalization with overlap

---- Real-time Memory Report at c_bands before calling an iterative solver
           224 MiB given to the printing process from OS
             0 MiB allocation reported by mallinfo(arena+hblkhd)
          4978 MiB available memory on the node where the printing process lives
------------------
     ethr =  1.77E-05,  avg # of iterations =  3.2

     total cpu time spent up to now is       19.2 secs

     WARNING: integrated charge=    52.00041004, expected=    52.00000000

     total energy              =   -1006.56799821 Ry
     estimated scf accuracy    <       0.00174273 Ry

     iteration #  5     ecut=    50.00 Ry     beta= 0.40
     Davidson diagonalization with overlap

---- Real-time Memory Report at c_bands before calling an iterative solver
           225 MiB given to the printing process from OS
             0 MiB allocation reported by mallinfo(arena+hblkhd)
          4977 MiB available memory on the node where the printing process lives
------------------
     ethr =  3.35E-06,  avg # of iterations =  2.3

     total cpu time spent up to now is       23.0 secs

     WARNING: integrated charge=    52.00035425, expected=    52.00000000

     total energy              =   -1006.56806736 Ry
     estimated scf accuracy    <       0.00004475 Ry

     iteration #  6     ecut=    50.00 Ry     beta= 0.40
     Davidson diagonalization with overlap

---- Real-time Memory Report at c_bands before calling an iterative solver
           225 MiB given to the printing process from OS
             0 MiB allocation reported by mallinfo(arena+hblkhd)
          4975 MiB available memory on the node where the printing process lives
------------------
     ethr =  8.61E-08,  avg # of iterations =  3.0

     total cpu time spent up to now is       27.9 secs

     WARNING: integrated charge=    52.00031782, expected=    52.00000000

     total energy              =   -1006.56805572 Ry
     estimated scf accuracy    <       0.00008047 Ry

     iteration #  7     ecut=    50.00 Ry     beta= 0.40
     Davidson diagonalization with overlap

---- Real-time Memory Report at c_bands before calling an iterative solver
           226 MiB given to the printing process from OS
             0 MiB allocation reported by mallinfo(arena+hblkhd)
          4975 MiB available memory on the node where the printing process lives
------------------
     ethr =  8.61E-08,  avg # of iterations =  2.0

     total cpu time spent up to now is       32.8 secs

     WARNING: integrated charge=    52.00031023, expected=    52.00000000

     total energy              =   -1006.56808873 Ry
     estimated scf accuracy    <       0.00000017 Ry

     iteration #  8     ecut=    50.00 Ry     beta= 0.40
     Davidson diagonalization with overlap

---- Real-time Memory Report at c_bands before calling an iterative solver
           227 MiB given to the printing process from OS
             0 MiB allocation reported by mallinfo(arena+hblkhd)
          4975 MiB available memory on the node where the printing process lives
------------------
     ethr =  3.34E-10,  avg # of iterations =  3.2

     total cpu time spent up to now is       40.0 secs

     WARNING: integrated charge=    52.00031092, expected=    52.00000000

     total energy              =   -1006.56808801 Ry
     estimated scf accuracy    <       0.00000009 Ry

     iteration #  9     ecut=    50.00 Ry     beta= 0.40
     Davidson diagonalization with overlap

---- Real-time Memory Report at c_bands before calling an iterative solver
           227 MiB given to the printing process from OS
             0 MiB allocation reported by mallinfo(arena+hblkhd)
          4974 MiB available memory on the node where the printing process lives
------------------
     ethr =  1.76E-10,  avg # of iterations =  3.0

     total cpu time spent up to now is       44.4 secs

     WARNING: integrated charge=    52.00030935, expected=    52.00000000

     total energy              =   -1006.56808811 Ry
     estimated scf accuracy    <       0.00000019 Ry

     iteration # 10     ecut=    50.00 Ry     beta= 0.40
     Davidson diagonalization with overlap

---- Real-time Memory Report at c_bands before calling an iterative solver
           228 MiB given to the printing process from OS
             0 MiB allocation reported by mallinfo(arena+hblkhd)
          4973 MiB available memory on the node where the printing process lives
------------------
     ethr =  1.76E-10,  avg # of iterations =  2.3

     total cpu time spent up to now is       48.1 secs

     End of self-consistent calculation

          k = 0.0000 0.0000 0.0000 (  1883 PWs)   bands (ev):

  -114.5423-114.5421 -68.7432 -68.7398 -68.7376 -68.7376 -68.7370 -68.7370
    -9.2193  -8.4858   3.1621   3.1621   3.2072   3.2328   3.3564   3.3564
     4.3480   4.3480   4.5596   4.5596   4.8371   8.0998   8.0998   8.8085
     8.8992   8.8992   9.6979  14.1543  17.1135  21.8535  21.8535

     occupation numbers 
     1.0000   1.0000   1.0000   1.0000   1.0000   1.0000   1.0000   1.0000
     1.0000   1.0000   1.0000   1.0000   1.0000   1.0000   1.0000   1.0000
     1.0000   1.0000   1.0000   1.0000   1.0000   1.0000   1.0000   1.0006
     1.0044   1.0044   0.0113   0.0000   0.0000   0.0000   0.0000

          k = 0.0000 0.0000 0.1550 (  1882 PWs)   bands (ev):

  -114.5423-114.5422 -68.7427 -68.7405 -68.7375 -68.7375 -68.7371 -68.7371
    -9.1170  -8.5985   3.0349   3.1022   3.1785   3.1785   3.3147   3.3147
     4.3893   4.3893   4.5402   4.5402   5.4645   7.8572   8.2189   8.2189
     8.7845   8.7845  10.8319  13.6302  17.5932  21.2012  21.8762

     occupation numbers 
     1.0000   1.0000   1.0000   1.0000   1.0000   1.0000   1.0000   1.0000
     1.0000   1.0000   1.0000   1.0000   1.0000   1.0000   1.0000   1.0000
     1.0000   1.0000   1.0000   1.0000   1.0000   1.0000   1.0000   1.0000
     1.0003   1.0003   0.0000   0.0000   0.0000   0.0000   0.0000

          k = 0.0000 0.0000-0.3100 (  1894 PWs)   bands (ev):

  -114.5422-114.5422 -68.7417 -68.7417 -68.7373 -68.7373 -68.7373 -68.7373
    -8.8631  -8.8631   2.9535   2.9535   3.2342   3.2342   3.2342   3.2342
     4.4754   4.4754   4.4754   4.4754   6.6412   6.6412   8.5040   8.5040
     8.5040   8.5040  12.3647  12.3647  18.9881  18.9881  22.1359

     occupation numbers 
     1.0000   1.0000   1.0000   1.0000   1.0000   1.0000   1.0000   1.0000
     1.0000   1.0000   1.0000   1.0000   1.0000   1.0000   1.0000   1.0000
     1.0000   1.0000   1.0000   1.0000   1.0000   1.0000   1.0000   1.0000
     1.0000   1.0000   0.0000   0.0000   0.0000   0.0000   0.0000

          k = 0.0000 0.1925 0.0000 (  1890 PWs)   bands (ev):

  -114.5423-114.5421 -68.7429 -68.7401 -68.7381 -68.7378 -68.7377 -68.7371
    -9.0699  -8.4212   3.0121   3.2438   3.2685   3.3430   3.4787   3.4824
     4.2871   4.3465   4.5715   4.6757   4.8076   7.1816   7.7489   7.7858
     8.6215   8.7064  11.1747  15.1706  17.1009  19.7696  21.5077

     occupation numbers 
     1.0000   1.0000   1.0000   1.0000   1.0000   1.0000   1.0000   1.0000
     1.0000   1.0000   1.0000   1.0000   1.0000   1.0000   1.0000   1.0000
     1.0000   1.0000   1.0000   1.0000   1.0000   1.0000   1.0000   1.0000
     1.0000   1.0000   0.0000   0.0000   0.0000   0.0000   0.0000

          k = 0.0000 0.1925 0.1550 (  1905 PWs)   bands (ev):

  -114.5423-114.5422 -68.7426 -68.7407 -68.7381 -68.7378 -68.7377 -68.7372
    -8.9779  -8.5190   2.9449   3.0553   3.2665   3.2926   3.4027   3.4310
     4.3522   4.3861   4.5457   4.5801   5.5325   7.2539   7.5215   7.8937
     8.4290   8.5701  11.7670  14.4805  17.6081  19.8574  21.0514

     occupation numbers 
     1.0000   1.0000   1.0000   1.0000   1.0000   1.0000   1.0000   1.0000
     1.0000   1.0000   1.0000   1.0000   1.0000   1.0000   1.0000   1.0000
     1.0000   1.0000   1.0000   1.0000   1.0000   1.0000   1.0000   1.0000
     1.0000   1.0000   0.0000   0.0000   0.0000   0.0000   0.0000

          k = 0.0000 0.1925-0.3100 (  1918 PWs)   bands (ev):

  -114.5422-114.5422 -68.7418 -68.7418 -68.7379 -68.7379 -68.7375 -68.7375
    -8.7514  -8.7514   2.8743   2.8743   3.3209   3.3209   3.3366   3.3366
     4.4726   4.4726   4.4769   4.4769   6.5844   6.5844   7.8824   7.8824
     8.2360   8.2360  13.1008  13.1008  18.8383  18.8383  20.8706

     occupation numbers 
     1.0000   1.0000   1.0000   1.0000   1.0000   1.0000   1.0000   1.0000
     1.0000   1.0000   1.0000   1.0000   1.0000   1.0000   1.0000   1.0000
     1.0000   1.0000   1.0000   1.0000   1.0000   1.0000   1.0000   1.0000
     1.0000   1.0000   0.0000   0.0000   0.0000   0.0000   0.0000

          k = 0.0000 0.3849 0.0000 (  1906 PWs)   bands (ev):

  -114.5422-114.5421 -68.7424 -68.7404 -68.7393 -68.7389 -68.7382 -68.7374
    -8.7338  -8.3130   2.8592   3.2133   3.3760   3.5765   3.7754   3.8944
     4.2565   4.4229   4.5922   4.7366   5.0137   5.7176   6.6190   7.0262
     8.0677   8.2853  13.1792  16.4530  16.8730  17.7498  19.9483

     occupation numbers 
     1.0000   1.0000   1.0000   1.0000   1.0000   1.0000   1.0000   1.0000
     1.0000   1.0000   1.0000   1.0000   1.0000   1.0000   1.0000   1.0000
     1.0000   1.0000   1.0000   1.0000   1.0000   1.0000   1.0000   1.0000
     1.0000   1.0000   0.0000   0.0000   0.0000   0.0000   0.0000

          k = 0.0000 0.3849 0.1550 (  1919 PWs)   bands (ev):

  -114.5422-114.5421 -68.7422 -68.7410 -68.7392 -68.7388 -68.7381 -68.7376
    -8.6705  -8.3724   2.7947   3.0091   3.4218   3.5316   3.6791   3.7016
     4.3454   4.4450   4.5622   4.6608   5.4466   5.9828   6.6349   7.2265
     8.0553   8.1112  13.3599  15.4761  17.4496  17.8597  19.8906

     occupation numbers 
     1.0000   1.0000   1.0000   1.0000   1.0000   1.0000   1.0000   1.0000
     1.0000   1.0000   1.0000   1.0000   1.0000   1.0000   1.0000   1.0000
     1.0000   1.0000   1.0000   1.0000   1.0000   1.0000   1.0000   1.0000
     1.0000   1.0000   0.0000   0.0000   0.0000   0.0000   0.0000

          k = 0.0000 0.3849-0.3100 (  1906 PWs)   bands (ev):

  -114.5422-114.5422 -68.7417 -68.7417 -68.7388 -68.7388 -68.7378 -68.7378
    -8.5195  -8.5195   2.7705   2.7705   3.5457   3.5457   3.5479   3.5479
     4.5003   4.5003   4.5146   4.5146   5.8314   5.8314   7.4880   7.4880
     7.6810   7.6810  14.1881  14.1881  17.8575  17.8575  20.3773

     occupation numbers 
     1.0000   1.0000   1.0000   1.0000   1.0000   1.0000   1.0000   1.0000
     1.0000   1.0000   1.0000   1.0000   1.0000   1.0000   1.0000   1.0000
     1.0000   1.0000   1.0000   1.0000   1.0000   1.0000   1.0000   1.0000
     1.0000   1.0000   0.0000   0.0000   0.0000   0.0000   0.0000

          k = 0.0000-0.5774 0.0000 (  1906 PWs)   bands (ev):

  -114.5422-114.5421 -68.7419 -68.7408 -68.7398 -68.7394 -68.7383 -68.7376
    -8.5203  -8.2952   2.9361   3.1325   3.4193   3.8077   3.8190   3.9606
     4.3822   4.5214   4.6083   4.6823   5.1539   5.3303   6.0557   6.6226
     7.6016   8.0549  14.7047  15.7872  16.4981  17.4550  19.5143

     occupation numbers 
     1.0000   1.0000   1.0000   1.0000   1.0000   1.0000   1.0000   1.0000
     1.0000   1.0000   1.0000   1.0000   1.0000   1.0000   1.0000   1.0000
     1.0000   1.0000   1.0000   1.0000   1.0000   1.0000   1.0000   1.0000
     1.0000   1.0000   0.0000   0.0000   0.0000   0.0000   0.0000

          k = 0.0000-0.5774 0.1550 (  1924 PWs)   bands (ev):

  -114.5422-114.5421 -68.7421 -68.7413 -68.7396 -68.7393 -68.7383 -68.7376
    -8.4832  -8.3236   2.8398   2.9387   3.4811   3.7414   3.7705   3.8599
     4.5045   4.5273   4.5808   4.6786   5.0894   5.2412   6.6376   6.8621
     7.7483   7.8625  14.4126  15.4209  16.9031  17.5219  19.4455

     occupation numbers 
     1.0000   1.0000   1.0000   1.0000   1.0000   1.0000   1.0000   1.0000
     1.0000   1.0000   1.0000   1.0000   1.0000   1.0000   1.0000   1.0000
     1.0000   1.0000   1.0000   1.0000   1.0000   1.0000   1.0000   1.0000
     1.0000   1.0000   0.0000   0.0000   0.0000   0.0000   0.0000

          k = 0.0000-0.5774-0.3100 (  1924 PWs)   bands (ev):

  -114.5421-114.5421 -68.7418 -68.7418 -68.7393 -68.7393 -68.7380 -68.7380
    -8.3990  -8.3990   2.7563   2.7563   3.6511   3.6511   3.7194   3.7194
     4.5460   4.5460   4.6336   4.6336   5.1173   5.1173   7.3831   7.3831
     7.5116   7.5116  14.6297  14.6297  17.3588  17.3588  20.2271

     occupation numbers 
     1.0000   1.0000   1.0000   1.0000   1.0000   1.0000   1.0000   1.0000
     1.0000   1.0000   1.0000   1.0000   1.0000   1.0000   1.0000   1.0000
     1.0000   1.0000   1.0000   1.0000   1.0000   1.0000   1.0000   1.0000
     1.0000   1.0000   0.0000   0.0000   0.0000   0.0000   0.0000

          k = 0.1667 0.2887 0.0000 (  1899 PWs)   bands (ev):

  -114.5422-114.5421 -68.7426 -68.7404 -68.7388 -68.7386 -68.7380 -68.7375
    -8.8257  -8.3352   2.9694   3.1727   3.3837   3.4378   3.7086   3.8138
     4.2343   4.3672   4.5848   4.7460   4.9569   6.3480   6.6011   7.1821
     8.2392   8.2687  12.7425  16.3357  17.2377  18.3648  20.0636

     occupation numbers 
     1.0000   1.0000   1.0000   1.0000   1.0000   1.0000   1.0000   1.0000
     1.0000   1.0000   1.0000   1.0000   1.0000   1.0000   1.0000   1.0000
     1.0000   1.0000   1.0000   1.0000   1.0000   1.0000   1.0000   1.0000
     1.0000   1.0000   0.0000   0.0000   0.0000   0.0000   0.0000

          k = 0.1667 0.2887 0.1550 (  1903 PWs)   bands (ev):

  -114.5422-114.5421 -68.7423 -68.7409 -68.7387 -68.7385 -68.7379 -68.7376
    -8.7534  -8.4062   2.8918   3.0325   3.3697   3.3935   3.5877   3.6462
     4.3264   4.4227   4.5569   4.6502   5.5826   6.5326   6.6580   7.2216
     8.0565   8.1973  13.0589  15.4610  17.6352  18.4763  20.3889

     occupation numbers 
     1.0000   1.0000   1.0000   1.0000   1.0000   1.0000   1.0000   1.0000
     1.0000   1.0000   1.0000   1.0000   1.0000   1.0000   1.0000   1.0000
     1.0000   1.0000   1.0000   1.0000   1.0000   1.0000   1.0000   1.0000
     1.0000   1.0000   0.0000   0.0000   0.0000   0.0000   0.0000

          k = 0.1667 0.2887-0.3100 (  1912 PWs)   bands (ev):

  -114.5422-114.5422 -68.7417 -68.7417 -68.7385 -68.7385 -68.7378 -68.7378
    -8.5791  -8.5791   2.8335   2.8335   3.3859   3.3859   3.5411   3.5411
     4.4804   4.4804   4.5134   4.5134   6.1846   6.1846   7.4820   7.4820
     7.6861   7.6861  14.0798  14.0798  18.2970  18.2970  20.0826

     occupation numbers 
     1.0000   1.0000   1.0000   1.0000   1.0000   1.0000   1.0000   1.0000
     1.0000   1.0000   1.0000   1.0000   1.0000   1.0000   1.0000   1.0000
     1.0000   1.0000   1.0000   1.0000   1.0000   1.0000   1.0000   1.0000
     1.0000   1.0000   0.0000   0.0000   0.0000   0.0000   0.0000

          k = 0.1667 0.4811 0.0000 (  1919 PWs)   bands (ev):

  -114.5422-114.5421 -68.7421 -68.7409 -68.7395 -68.7392 -68.7386 -68.7379
    -8.5285  -8.2908   3.0366   3.2847   3.4319   3.6505   3.9246   3.9977
     4.3197   4.3920   4.6212   4.8130   4.9916   5.6157   6.0094   6.3422
     7.5690   7.7654  14.7604  16.5511  16.9281  17.5218  19.7057

     occupation numbers 
     1.0000   1.0000   1.0000   1.0000   1.0000   1.0000   1.0000   1.0000
     1.0000   1.0000   1.0000   1.0000   1.0000   1.0000   1.0000   1.0000
     1.0000   1.0000   1.0000   1.0000   1.0000   1.0000   1.0000   1.0000
     1.0000   1.0000   0.0000   0.0000   0.0000   0.0000   0.0000

          k = 0.1667 0.4811 0.1550 (  1913 PWs)   bands (ev):

  -114.5422-114.5421 -68.7419 -68.7413 -68.7393 -68.7391 -68.7384 -68.7380
    -8.4897  -8.3212   2.9602   3.1067   3.4170   3.6093   3.8014   3.8470
     4.3739   4.4887   4.6187   4.7931   5.0989   5.6019   6.2658   6.7673
     7.4570   7.8011  14.7533  16.0418  17.2336  17.6275  19.1499

     occupation numbers 
     1.0000   1.0000   1.0000   1.0000   1.0000   1.0000   1.0000   1.0000
     1.0000   1.0000   1.0000   1.0000   1.0000   1.0000   1.0000   1.0000
     1.0000   1.0000   1.0000   1.0000   1.0000   1.0000   1.0000   1.0000
     1.0000   1.0000   0.0000   0.0000   0.0000   0.0000   0.0000

          k = 0.1667 0.4811-0.3100 (  1910 PWs)   bands (ev):

  -114.5421-114.5421 -68.7417 -68.7417 -68.7391 -68.7391 -68.7382 -68.7382
    -8.4012  -8.4012   2.8963   2.8963   3.5161   3.5161   3.7310   3.7310
     4.4807   4.4807   4.6780   4.6780   5.3645   5.3645   6.8624   6.8624
     7.5987   7.5987  15.1815  15.1815  17.5644  17.5644  19.1964

     occupation numbers 
     1.0000   1.0000   1.0000   1.0000   1.0000   1.0000   1.0000   1.0000
     1.0000   1.0000   1.0000   1.0000   1.0000   1.0000   1.0000   1.0000
     1.0000   1.0000   1.0000   1.0000   1.0000   1.0000   1.0000   1.0000
     1.0000   1.0000   0.0000   0.0000   0.0000   0.0000   0.0000

          k = 0.3333 0.5774 0.0000 (  1923 PWs)   bands (ev):

  -114.5421-114.5421 -68.7414 -68.7414 -68.7393 -68.7391 -68.7391 -68.7385
    -8.3532  -8.3532   3.1189   3.5204   3.5204   3.8747   4.1540   4.1540
     4.2715   4.4087   4.4368   4.4368   5.1346   5.3545   5.3545   6.9679
     6.9679   7.1586  16.5790  16.6341  16.6341  17.0786  19.7007

     occupation numbers 
     1.0000   1.0000   1.0000   1.0000   1.0000   1.0000   1.0000   1.0000
     1.0000   1.0000   1.0000   1.0000   1.0000   1.0000   1.0000   1.0000
     1.0000   1.0000   1.0000   1.0000   1.0000   1.0000   1.0000   1.0000
     1.0000   1.0000   0.0000   0.0000   0.0000   0.0000   0.0000

          k = 0.3333 0.5774 0.1550 (  1917 PWs)   bands (ev):

  -114.5421-114.5421 -68.7416 -68.7416 -68.7392 -68.7389 -68.7389 -68.7386
    -8.3479  -8.3479   3.1824   3.3252   3.3252   3.6670   3.9859   3.9859
     4.3051   4.3926   4.7071   4.7071   5.2656   5.2656   5.4865   6.8703
     7.3093   7.3093  16.7112  16.7179  16.7179  17.0463  18.6660

     occupation numbers 
     1.0000   1.0000   1.0000   1.0000   1.0000   1.0000   1.0000   1.0000
     1.0000   1.0000   1.0000   1.0000   1.0000   1.0000   1.0000   1.0000
     1.0000   1.0000   1.0000   1.0000   1.0000   1.0000   1.0000   1.0000
     1.0000   1.0000   0.0000   0.0000   0.0000   0.0000   0.0000

          k = 0.3333 0.5774-0.3100 (  1908 PWs)   bands (ev):

  -114.5421-114.5421 -68.7417 -68.7417 -68.7388 -68.7388 -68.7387 -68.7387
    -8.3426  -8.3426   3.1455   3.1455   3.3729   3.3729   3.9325   3.9325
     4.3523   4.3523   4.8798   4.8798   5.1686   5.1686   6.1962   6.1962
     7.6368   7.6368  16.9161  16.9161  16.9258  16.9258  17.7748

     occupation numbers 
     1.0000   1.0000   1.0000   1.0000   1.0000   1.0000   1.0000   1.0000
     1.0000   1.0000   1.0000   1.0000   1.0000   1.0000   1.0000   1.0000
     1.0000   1.0000   1.0000   1.0000   1.0000   1.0000   1.0000   1.0000
     1.0000   1.0000   0.0000   0.0000   0.0000   0.0000   0.0000

     the Fermi energy is     9.4470 ev

     WARNING: integrated charge=    52.00030929, expected=    52.00000000

!    total energy              =   -1006.56808884 Ry
     estimated scf accuracy    <          2.1E-09 Ry
     smearing contrib. (-TS)   =       0.00000351 Ry
     internal energy E=F+TS    =   -1006.56809235 Ry

     The total energy is F=E-TS. E is the sum of the following terms:
     one-electron contribution =    -804.01324374 Ry
     hartree contribution      =     424.17481061 Ry
     xc contribution           =     -99.53142083 Ry
     ewald contribution        =    -508.17051050 Ry
     one-center paw contrib.   =     -19.02772789 Ry
      -> PAW hartree energy AE =      52.91500640 Ry
      -> PAW hartree energy PS =     -52.66342864 Ry
      -> PAW xc energy AE      =     -33.43608440 Ry
      -> PAW xc energy PS      =      14.15677876 Ry
      -> total E_H with PAW    =     424.42638837 Ry
      -> total E_XC with PAW   =    -118.81072648 Ry

     convergence has been achieved in  10 iterations

     Forces acting on atoms (cartesian axes, Ry/au):

     atom    1 type  2   force =     0.00000000    0.00000000   -0.00009736
     atom    2 type  2   force =     0.00000000    0.00000000   -0.00009736
     atom    3 type  1   force =    -0.00000000   -0.00000000    0.00009736
     atom    4 type  1   force =    -0.00000000   -0.00000000    0.00009736
     The non-local contrib.  to forces
     atom    1 type  2   force =     0.00000000    0.00000000   -0.01264044
     atom    2 type  2   force =     0.00000000    0.00000000   -0.01264044
     atom    3 type  1   force =    -0.00000000    0.00000000    0.00477512
     atom    4 type  1   force =     0.00000000    0.00000000    0.00477512
     The ionic contribution  to forces
     atom    1 type  2   force =    -0.00000062    0.00000036    0.08378819
     atom    2 type  2   force =     0.00000062   -0.00000036    0.08378819
     atom    3 type  1   force =    -0.00000053    0.00000031   -0.08378819
     atom    4 type  1   force =     0.00000053   -0.00000031   -0.08378819
     The local contribution  to forces
     atom    1 type  2   force =    -0.00000967    0.00000558   -0.07124499
     atom    2 type  2   force =     0.00002902   -0.00001675   -0.07124560
     atom    3 type  1   force =    -0.00000056    0.00000033    0.07918137
     atom    4 type  1   force =     0.00000169   -0.00000098    0.07918237
     The core correction contribution to forces
     atom    1 type  2   force =     0.00000000    0.00000000    0.00000000
     atom    2 type  2   force =     0.00000000    0.00000000    0.00000000
     atom    3 type  1   force =    -0.00000000    0.00000000   -0.00007244
     atom    4 type  1   force =     0.00000000   -0.00000000   -0.00007244
     The Hubbard contrib.    to forces
     atom    1 type  2   force =     0.00000000    0.00000000    0.00000000
     atom    2 type  2   force =     0.00000000    0.00000000    0.00000000
     atom    3 type  1   force =     0.00000000    0.00000000    0.00000000
     atom    4 type  1   force =     0.00000000    0.00000000    0.00000000
     The SCF correction term to forces
     atom    1 type  2   force =    -0.00000000    0.00000000   -0.00000397
     atom    2 type  2   force =     0.00000000   -0.00000000   -0.00000397
     atom    3 type  1   force =    -0.00000000    0.00000000   -0.00000317
     atom    4 type  1   force =     0.00000000   -0.00000000   -0.00000317

     Total force =     0.000195     Total SCF correction =     0.000007


     Computing stress (Cartesian axis) and pressure

          total   stress  (Ry/bohr**3)                   (kbar)     P=       54.38
   0.00036891   0.00000000   0.00000000           54.27        0.00        0.00
   0.00000000   0.00036891   0.00000000            0.00       54.27        0.00
   0.00000000   0.00000000   0.00037118            0.00        0.00       54.60

     kinetic stress (kbar)  35029.45      0.00     -0.00
                                0.00  35029.45      0.00
                                0.00      0.00  35057.35

     local   stress (kbar)  -5380.48     -0.00     -0.00
                               -0.00  -5380.48      0.00
                               -0.00      0.00  -9549.38

     nonloc. stress (kbar)   -724.27      0.00     -0.00
                                0.00   -724.27      0.00
                                0.00      0.00   -737.36

     hartree stress (kbar)  64368.54     -0.00      0.00
                               -0.00  64368.54      0.00
                                0.00      0.00  66347.87

     exc-cor stress (kbar) -14217.86      0.00     -0.00
                                0.00 -14217.86      0.00
                               -0.00      0.00 -14217.98

     corecor stress (kbar)   -390.72     -0.00      0.00
                               -0.00   -390.72     -0.00
                                0.00     -0.00   -390.75

     ewald   stress (kbar) -78630.39      0.00      0.00
                                0.00 -78630.39      0.00
                                0.00      0.00 -76455.16

     hubbard stress (kbar)      0.00      0.00      0.00
                                0.00      0.00      0.00
                                0.00      0.00      0.00

     DFT-D   stress (kbar)      0.00      0.00      0.00
                                0.00      0.00      0.00
                                0.00      0.00      0.00

     XDM     stress (kbar)      0.00      0.00      0.00
                                0.00      0.00      0.00
                                0.00      0.00      0.00

     dft-nl  stress (kbar)      0.00      0.00      0.00
                                0.00      0.00      0.00
                                0.00      0.00      0.00

     TS-vdW  stress (kbar)      0.00      0.00      0.00
                                0.00      0.00      0.00
                                0.00      0.00      0.00

     MDB     stress (kbar)      0.00      0.00      0.00
                                0.00      0.00      0.00
                                0.00      0.00      0.00

     3D-RISM stress (kbar)      0.00      0.00      0.00
                                0.00      0.00      0.00
                                0.00      0.00      0.00


     Writing all to output data dir ./temp_hexag/aiida.save/ :
     XML data file, charge density, pseudopotentials, collected wavefunctions

     init_run     :     46.45s CPU      2.34s WALL (       1 calls)
     electrons    :    926.75s CPU     45.45s WALL (       1 calls)
     forces       :     13.85s CPU      0.69s WALL (       1 calls)
     stress       :     11.23s CPU      1.06s WALL (       1 calls)

     Called by init_run:
     wfcinit      :     41.96s CPU      1.87s WALL (       1 calls)
     wfcinit:atom :      0.36s CPU      0.02s WALL (      21 calls)
     wfcinit:wfcr :     41.09s CPU      1.78s WALL (      21 calls)
     potinit      :      1.08s CPU      0.07s WALL (       1 calls)
     hinit0       :      1.68s CPU      0.26s WALL (       1 calls)

     Called by electrons:
     c_bands      :    791.55s CPU     38.05s WALL (      10 calls)
     sum_band     :    115.86s CPU      5.88s WALL (      10 calls)
     v_of_rho     :      4.82s CPU      0.21s WALL (      11 calls)
     v_h          :      0.70s CPU      0.03s WALL (      11 calls)
     v_xc         :      4.91s CPU      0.22s WALL (      13 calls)
     newd         :     11.52s CPU      1.15s WALL (      11 calls)
     PAW_pot      :      3.22s CPU      0.15s WALL (      11 calls)
     mix_rho      :      0.98s CPU      0.05s WALL (      10 calls)

     Called by c_bands:
     init_us_2    :      6.93s CPU      0.40s WALL (     483 calls)
     cegterg      :    774.14s CPU     37.26s WALL (     210 calls)

     Called by sum_band:
     sum_band:wei :      0.01s CPU      0.00s WALL (      10 calls)
     sum_band:loo :    110.91s CPU      4.65s WALL (      10 calls)
     sum_band:buf :      0.46s CPU      0.02s WALL (     210 calls)
     sum_band:ini :      3.68s CPU      0.12s WALL (     210 calls)
     sum_band:cal :     22.86s CPU      0.91s WALL (     210 calls)
     sum_band:bec :      5.89s CPU      0.22s WALL (     210 calls)
     addusdens    :      4.59s CPU      1.11s WALL (      10 calls)
                                        0.00s GPU  (      10 calls)
     addusd:skk   :      0.00s CPU      0.00s WALL (      20 calls)
                                        0.00s GPU  (      20 calls)

     Called by *egterg:
     cdiaghg      :      8.64s CPU      0.63s WALL (     764 calls)
     cegterg:over :     67.17s CPU      2.78s WALL (     554 calls)
     cegterg:upda :     25.07s CPU      2.00s WALL (     554 calls)
     cegterg:last :     21.98s CPU      2.98s WALL (     415 calls)
     h_psi        :    598.86s CPU     25.85s WALL (     785 calls)
     s_psi        :     47.39s CPU      2.64s WALL (     785 calls)
     g_psi        :      3.71s CPU      0.25s WALL (     554 calls)

     Called by h_psi:
     h_psi:calbec :     53.96s CPU      2.40s WALL (     785 calls)
     vloc_psi     :    470.07s CPU     20.66s WALL (     785 calls)
     add_vuspsi   :     70.09s CPU      2.53s WALL (     785 calls)

     General routines
     calbec       :     88.32s CPU      3.81s WALL (    1100 calls)
     fft          :      4.97s CPU      0.22s WALL (     166 calls)
     ffts         :      0.01s CPU      0.01s WALL (      21 calls)
     fftw         :    236.89s CPU     10.65s WALL (   39786 calls)
     interpolate  :      0.48s CPU      0.02s WALL (      11 calls)

     Parallel routines

     PAW routines
     PAW_pot      :      3.22s CPU      0.15s WALL (      11 calls)
     PAW_symme    :      0.00s CPU      0.00s WALL (      21 calls)

     PWSCF        :  16m44.67s CPU     50.31s WALL


   This run was terminated on:  15:51:33   9Jun2024            

=------------------------------------------------------------------------------=
   JOB DONE.
=------------------------------------------------------------------------------=
