
     Program PWSCF v.7.3.1 starts on 11Jun2024 at 23:18: 8 

     This program is part of the open-source Quantum ESPRESSO suite
     for quantum simulation of materials; please cite
         "P. Giannozzi et al., J. Phys.:Condens. Matter 21 395502 (2009);
         "P. Giannozzi et al., J. Phys.:Condens. Matter 29 465901 (2017);
         "P. Giannozzi et al., J. Chem. Phys. 152 154105 (2020);
          URL http://www.quantum-espresso.org", 
     in publications or presentations arising from this work. More details at
     http://www.quantum-espresso.org/quote

     Parallel version (MPI & OpenMP), running on      24 processor cores
     Number of MPI processes:                 1
     Threads/MPI process:                    24

     MPI processes distributed on     1 nodes
     4684 MiB available memory on the printing compute node when the environment starts

     Waiting for input...
     Reading input from standard input

     Current dimensions of program PWSCF are:
     Max number of different atomic species (ntypx) = 10
     Max number of k-points (npk) =  40000
     Max angular momentum in pseudopotentials (lmaxx) =  4
     file O.pbe-n-kjpaw_psl.0.1.UPF: wavefunction(s)  2P renormalized
     Message from routine setup:
     using ibrav=0 with symmetry is DISCOURAGED, use correct ibrav instead

     Subspace diagonalization in iterative solution of the eigenvalue problem:
     a serial algorithm will be used


     G-vector sticks info
     --------------------
     sticks:   dense  smooth     PW     G-vecs:    dense   smooth      PW
     Sum        1159     583    169                51445    18305    3001

     Using Slab Decomposition



     bravais-lattice index     =            0
     lattice parameter (alat)  =       6.4848  a.u.
     unit-cell volume          =     380.9486 (a.u.)^3
     number of atoms/cell      =            4
     number of atomic types    =            2
     number of electrons       =        52.00
     number of Kohn-Sham states=           31
     kinetic-energy cutoff     =      50.0000  Ry
     charge density cutoff     =     400.0000  Ry
     scf convergence threshold =      2.0E-08
     mixing beta               =       0.4000
     number of iterations used =            8  plain     mixing
     Exchange-correlation= SLA  PW   PBE  PBE
                           (   1   4   3   4   0   0   0)

     celldm(1)=   6.484769  celldm(2)=   0.000000  celldm(3)=   0.000000
     celldm(4)=   0.000000  celldm(5)=   0.000000  celldm(6)=   0.000000

     crystal axes: (cart. coord. in units of alat)
               a(1) = (   1.000000   0.000000   0.000000 )  
               a(2) = (  -0.500000   0.866025   0.000000 )  
               a(3) = (   0.000000   0.000000   1.613066 )  

     reciprocal axes: (cart. coord. in units 2 pi/alat)
               b(1) = (  1.000000  0.577350 -0.000000 )  
               b(2) = (  0.000000  1.154701  0.000000 )  
               b(3) = (  0.000000 -0.000000  0.619937 )  


     PseudoPot. # 1 for O  read from file:
     ../SSSP_1.3.0_PBE_efficiency/O.pbe-n-kjpaw_psl.0.1.UPF
     MD5 check sum: 0234752ac141de4415c5fc33072bef88
     Pseudo is Projector augmented-wave + core cor, Zval =  6.0
     Generated using "atomic" code by A. Dal Corso  v.5.0.99 svn rev. 10869
     Shape of augmentation charge: BESSEL
     Using radial grid of 1095 points,  4 beta functions with: 
                l(1) =   0
                l(2) =   0
                l(3) =   1
                l(4) =   1
     Q(r) pseudized with 0 coefficients 


     PseudoPot. # 2 for Zn read from file:
     ../SSSP_1.3.0_PBE_efficiency/Zn_pbe_v1.uspp.F.UPF
     MD5 check sum: df62231357ef9e81f77b2b3087fa5675
     Pseudo is Ultrasoft, Zval = 20.0
     Generated by new atomic code, or converted to UPF format
     Using radial grid of  943 points,  6 beta functions with: 
                l(1) =   0
                l(2) =   0
                l(3) =   1
                l(4) =   1
                l(5) =   2
                l(6) =   2
     Q(r) pseudized with  8 coefficients,  rinner =    1.100   1.100   1.100
                                                       1.100   1.100

     atomic species   valence    mass     pseudopotential
     O                 6.00    15.99940     O ( 1.00)
     Zn               20.00    65.38000     Zn( 1.00)

     12 Sym. Ops. (no inversion) found ( 6 have fractional translation)


                                    s                        frac. trans.

      isym =  1     identity                                     

 cryst.   s( 1) = (     1          0          0      )
                  (     0          1          0      )
                  (     0          0          1      )

 cart.    s( 1) = (  1.0000000  0.0000000  0.0000000 )
                  (  0.0000000  1.0000000  0.0000000 )
                  (  0.0000000  0.0000000  1.0000000 )


      isym =  2     180 deg rotation - cart. axis [0,0,1]        

 cryst.   s( 2) = (    -1          0          0      )    f =(  0.0000000 )
                  (     0         -1          0      )       (  0.0000000 )
                  (     0          0          1      )       ( -0.5000000 )

 cart.    s( 2) = ( -1.0000000  0.0000000  0.0000000 )    f =(  0.0000000 )
                  (  0.0000000 -1.0000000  0.0000000 )       (  0.0000000 )
                  (  0.0000000  0.0000000  1.0000000 )       ( -0.8065331 )


      isym =  3      60 deg rotation - cryst. axis [0,0,1]       

 cryst.   s( 3) = (     1          1          0      )    f =( -0.0000000 )
                  (    -1          0          0      )       (  0.0000000 )
                  (     0          0          1      )       ( -0.5000000 )

 cart.    s( 3) = (  0.5000000 -0.8660254  0.0000000 )    f =( -0.0000000 )
                  (  0.8660254  0.5000000  0.0000000 )       (  0.0000000 )
                  (  0.0000000  0.0000000  1.0000000 )       ( -0.8065331 )


      isym =  4      60 deg rotation - cryst. axis [0,0,-1]      

 cryst.   s( 4) = (     0         -1          0      )    f =(  0.0000000 )
                  (     1          1          0      )       (  0.0000000 )
                  (     0          0          1      )       ( -0.5000000 )

 cart.    s( 4) = (  0.5000000  0.8660254  0.0000000 )    f =( -0.0000000 )
                  ( -0.8660254  0.5000000  0.0000000 )       (  0.0000000 )
                  (  0.0000000  0.0000000  1.0000000 )       ( -0.8065331 )


      isym =  5     120 deg rotation - cryst. axis [0,0,1]       

 cryst.   s( 5) = (     0          1          0      )
                  (    -1         -1          0      )
                  (     0          0          1      )

 cart.    s( 5) = ( -0.5000000 -0.8660254  0.0000000 )
                  (  0.8660254 -0.5000000  0.0000000 )
                  (  0.0000000  0.0000000  1.0000000 )


      isym =  6     120 deg rotation - cryst. axis [0,0,-1]      

 cryst.   s( 6) = (    -1         -1          0      )
                  (     1          0          0      )
                  (     0          0          1      )

 cart.    s( 6) = ( -0.5000000  0.8660254  0.0000000 )
                  ( -0.8660254 -0.5000000  0.0000000 )
                  (  0.0000000  0.0000000  1.0000000 )


      isym =  7     inv. 180 deg rotation - cart. axis [0,1,0]   

 cryst.   s( 7) = (     1          0          0      )    f =( -0.0000000 )
                  (    -1         -1          0      )       (  0.0000000 )
                  (     0          0          1      )       ( -0.5000000 )

 cart.    s( 7) = (  1.0000000  0.0000000  0.0000000 )    f =( -0.0000000 )
                  (  0.0000000 -1.0000000  0.0000000 )       (  0.0000000 )
                  (  0.0000000  0.0000000  1.0000000 )       ( -0.8065331 )


      isym =  8     inv. 180 deg rotation - cart. axis [1,0,0]   

 cryst.   s( 8) = (    -1          0          0      )
                  (     1          1          0      )
                  (     0          0          1      )

 cart.    s( 8) = ( -1.0000000  0.0000000  0.0000000 )
                  (  0.0000000  1.0000000  0.0000000 )
                  (  0.0000000  0.0000000  1.0000000 )


      isym =  9     inv. 180 deg rotation - cryst. axis [1,-1,0] 

 cryst.   s( 9) = (     0          1          0      )    f =(  0.0000000 )
                  (     1          0          0      )       (  0.0000000 )
                  (     0          0          1      )       ( -0.5000000 )

 cart.    s( 9) = ( -0.5000000  0.8660254  0.0000000 )    f =(  0.0000000 )
                  (  0.8660254  0.5000000  0.0000000 )       (  0.0000000 )
                  (  0.0000000  0.0000000  1.0000000 )       ( -0.8065331 )


      isym = 10     inv. 180 deg rotation - cryst. axis [2,1,0]  

 cryst.   s(10) = (    -1         -1          0      )    f =(  0.0000000 )
                  (     0          1          0      )       (  0.0000000 )
                  (     0          0          1      )       ( -0.5000000 )

 cart.    s(10) = ( -0.5000000 -0.8660254  0.0000000 )    f =( -0.0000000 )
                  ( -0.8660254  0.5000000  0.0000000 )       (  0.0000000 )
                  (  0.0000000  0.0000000  1.0000000 )       ( -0.8065331 )


      isym = 11     inv. 180 deg rotation - cryst. axis [0,1,0]  

 cryst.   s(11) = (     1          1          0      )
                  (     0         -1          0      )
                  (     0          0          1      )

 cart.    s(11) = (  0.5000000  0.8660254  0.0000000 )
                  (  0.8660254 -0.5000000  0.0000000 )
                  (  0.0000000  0.0000000  1.0000000 )


      isym = 12     inv. 180 deg rotation - cryst. axis [1,1,0]  

 cryst.   s(12) = (     0         -1          0      )
                  (    -1          0          0      )
                  (     0          0          1      )

 cart.    s(12) = (  0.5000000 -0.8660254  0.0000000 )
                  ( -0.8660254 -0.5000000  0.0000000 )
                  (  0.0000000  0.0000000  1.0000000 )


   Cartesian axes

     site n.     atom                  positions (alat units)
         1        Zn     tau(   1) = (   0.5000000   0.2886751   0.8074875  )
         2        Zn     tau(   2) = (  -0.0000000   0.5773503   0.0009545  )
         3        O      tau(   3) = (   0.5000000   0.2886751   1.4190438  )
         4        O      tau(   4) = (  -0.0000000   0.5773503   0.6125107  )

   Crystallographic axes

     site n.     atom                  positions (cryst. coord.)
         1        Zn     tau(   1) = (  0.6666667  0.3333333  0.5005917  )
         2        Zn     tau(   2) = (  0.3333333  0.6666667  0.0005917  )
         3        O      tau(   3) = (  0.6666667  0.3333333  0.8797183  )
         4        O      tau(   4) = (  0.3333333  0.6666667  0.3797183  )

     number of k points=    95  Marzari-Vanderbilt smearing, width (Ry)=  0.0147
                       cart. coord. in units 2pi/alat
        k(    1) = (   0.0000000   0.0000000   0.0000000), wk =   0.0017361
        k(    2) = (   0.0000000   0.0000000   0.0774922), wk =   0.0034722
        k(    3) = (   0.0000000   0.0000000   0.1549843), wk =   0.0034722
        k(    4) = (   0.0000000   0.0000000   0.2324765), wk =   0.0034722
        k(    5) = (   0.0000000   0.0000000  -0.3099687), wk =   0.0017361
        k(    6) = (   0.0000000   0.0962250   0.0000000), wk =   0.0104167
        k(    7) = (   0.0000000   0.0962250   0.0774922), wk =   0.0208333
        k(    8) = (   0.0000000   0.0962250   0.1549843), wk =   0.0208333
        k(    9) = (   0.0000000   0.0962250   0.2324765), wk =   0.0208333
        k(   10) = (   0.0000000   0.0962250  -0.3099687), wk =   0.0104167
        k(   11) = (   0.0000000   0.1924501   0.0000000), wk =   0.0104167
        k(   12) = (   0.0000000   0.1924501   0.0774922), wk =   0.0208333
        k(   13) = (   0.0000000   0.1924501   0.1549843), wk =   0.0208333
        k(   14) = (   0.0000000   0.1924501   0.2324765), wk =   0.0208333
        k(   15) = (   0.0000000   0.1924501  -0.3099687), wk =   0.0104167
        k(   16) = (   0.0000000   0.2886751   0.0000000), wk =   0.0104167
        k(   17) = (   0.0000000   0.2886751   0.0774922), wk =   0.0208333
        k(   18) = (   0.0000000   0.2886751   0.1549843), wk =   0.0208333
        k(   19) = (   0.0000000   0.2886751   0.2324765), wk =   0.0208333
        k(   20) = (   0.0000000   0.2886751  -0.3099687), wk =   0.0104167
        k(   21) = (   0.0000000   0.3849002   0.0000000), wk =   0.0104167
        k(   22) = (   0.0000000   0.3849002   0.0774922), wk =   0.0208333
        k(   23) = (   0.0000000   0.3849002   0.1549843), wk =   0.0208333
        k(   24) = (   0.0000000   0.3849002   0.2324765), wk =   0.0208333
        k(   25) = (   0.0000000   0.3849002  -0.3099687), wk =   0.0104167
        k(   26) = (   0.0000000   0.4811252   0.0000000), wk =   0.0104167
        k(   27) = (   0.0000000   0.4811252   0.0774922), wk =   0.0208333
        k(   28) = (   0.0000000   0.4811252   0.1549843), wk =   0.0208333
        k(   29) = (   0.0000000   0.4811252   0.2324765), wk =   0.0208333
        k(   30) = (   0.0000000   0.4811252  -0.3099687), wk =   0.0104167
        k(   31) = (   0.0000000  -0.5773503   0.0000000), wk =   0.0052083
        k(   32) = (   0.0000000  -0.5773503   0.0774922), wk =   0.0104167
        k(   33) = (   0.0000000  -0.5773503   0.1549843), wk =   0.0104167
        k(   34) = (   0.0000000  -0.5773503   0.2324765), wk =   0.0104167
        k(   35) = (   0.0000000  -0.5773503  -0.3099687), wk =   0.0052083
        k(   36) = (   0.0833333   0.1443376   0.0000000), wk =   0.0104167
        k(   37) = (   0.0833333   0.1443376   0.0774922), wk =   0.0208333
        k(   38) = (   0.0833333   0.1443376   0.1549843), wk =   0.0208333
        k(   39) = (   0.0833333   0.1443376   0.2324765), wk =   0.0208333
        k(   40) = (   0.0833333   0.1443376  -0.3099687), wk =   0.0104167
        k(   41) = (   0.0833333   0.2405626   0.0000000), wk =   0.0208333
        k(   42) = (   0.0833333   0.2405626   0.0774922), wk =   0.0416667
        k(   43) = (   0.0833333   0.2405626   0.1549843), wk =   0.0416667
        k(   44) = (   0.0833333   0.2405626   0.2324765), wk =   0.0416667
        k(   45) = (   0.0833333   0.2405626  -0.3099687), wk =   0.0208333
        k(   46) = (   0.0833333   0.3367877   0.0000000), wk =   0.0208333
        k(   47) = (   0.0833333   0.3367877   0.0774922), wk =   0.0416667
        k(   48) = (   0.0833333   0.3367877   0.1549843), wk =   0.0416667
        k(   49) = (   0.0833333   0.3367877   0.2324765), wk =   0.0416667
        k(   50) = (   0.0833333   0.3367877  -0.3099687), wk =   0.0208333
        k(   51) = (   0.0833333   0.4330127   0.0000000), wk =   0.0208333
        k(   52) = (   0.0833333   0.4330127   0.0774922), wk =   0.0416667
        k(   53) = (   0.0833333   0.4330127   0.1549843), wk =   0.0416667
        k(   54) = (   0.0833333   0.4330127   0.2324765), wk =   0.0416667
        k(   55) = (   0.0833333   0.4330127  -0.3099687), wk =   0.0208333
        k(   56) = (   0.0833333   0.5292377   0.0000000), wk =   0.0208333
        k(   57) = (   0.0833333   0.5292377   0.0774922), wk =   0.0416667
        k(   58) = (   0.0833333   0.5292377   0.1549843), wk =   0.0416667
        k(   59) = (   0.0833333   0.5292377   0.2324765), wk =   0.0416667
        k(   60) = (   0.0833333   0.5292377  -0.3099687), wk =   0.0208333
        k(   61) = (   0.1666667   0.2886751   0.0000000), wk =   0.0104167
        k(   62) = (   0.1666667   0.2886751   0.0774922), wk =   0.0208333
        k(   63) = (   0.1666667   0.2886751   0.1549843), wk =   0.0208333
        k(   64) = (   0.1666667   0.2886751   0.2324765), wk =   0.0208333
        k(   65) = (   0.1666667   0.2886751  -0.3099687), wk =   0.0104167
        k(   66) = (   0.1666667   0.3849002   0.0000000), wk =   0.0208333
        k(   67) = (   0.1666667   0.3849002   0.0774922), wk =   0.0416667
        k(   68) = (   0.1666667   0.3849002   0.1549843), wk =   0.0416667
        k(   69) = (   0.1666667   0.3849002   0.2324765), wk =   0.0416667
        k(   70) = (   0.1666667   0.3849002  -0.3099687), wk =   0.0208333
        k(   71) = (   0.1666667   0.4811252   0.0000000), wk =   0.0208333
        k(   72) = (   0.1666667   0.4811252   0.0774922), wk =   0.0416667
        k(   73) = (   0.1666667   0.4811252   0.1549843), wk =   0.0416667
        k(   74) = (   0.1666667   0.4811252   0.2324765), wk =   0.0416667
        k(   75) = (   0.1666667   0.4811252  -0.3099687), wk =   0.0208333
        k(   76) = (   0.1666667   0.5773503   0.0000000), wk =   0.0104167
        k(   77) = (   0.1666667   0.5773503   0.0774922), wk =   0.0208333
        k(   78) = (   0.1666667   0.5773503   0.1549843), wk =   0.0208333
        k(   79) = (   0.1666667   0.5773503   0.2324765), wk =   0.0208333
        k(   80) = (   0.1666667   0.5773503  -0.3099687), wk =   0.0104167
        k(   81) = (   0.2500000   0.4330127   0.0000000), wk =   0.0104167
        k(   82) = (   0.2500000   0.4330127   0.0774922), wk =   0.0208333
        k(   83) = (   0.2500000   0.4330127   0.1549843), wk =   0.0208333
        k(   84) = (   0.2500000   0.4330127   0.2324765), wk =   0.0208333
        k(   85) = (   0.2500000   0.4330127  -0.3099687), wk =   0.0104167
        k(   86) = (   0.2500000   0.5292377   0.0000000), wk =   0.0208333
        k(   87) = (   0.2500000   0.5292377   0.0774922), wk =   0.0416667
        k(   88) = (   0.2500000   0.5292377   0.1549843), wk =   0.0416667
        k(   89) = (   0.2500000   0.5292377   0.2324765), wk =   0.0416667
        k(   90) = (   0.2500000   0.5292377  -0.3099687), wk =   0.0208333
        k(   91) = (   0.3333333   0.5773503   0.0000000), wk =   0.0034722
        k(   92) = (   0.3333333   0.5773503   0.0774922), wk =   0.0069444
        k(   93) = (   0.3333333   0.5773503   0.1549843), wk =   0.0069444
        k(   94) = (   0.3333333   0.5773503   0.2324765), wk =   0.0069444
        k(   95) = (   0.3333333   0.5773503  -0.3099687), wk =   0.0034722

                       cryst. coord.
        k(    1) = (   0.0000000   0.0000000   0.0000000), wk =   0.0017361
        k(    2) = (   0.0000000   0.0000000   0.1250000), wk =   0.0034722
        k(    3) = (   0.0000000   0.0000000   0.2500000), wk =   0.0034722
        k(    4) = (   0.0000000   0.0000000   0.3750000), wk =   0.0034722
        k(    5) = (   0.0000000   0.0000000  -0.5000000), wk =   0.0017361
        k(    6) = (   0.0000000   0.0833333   0.0000000), wk =   0.0104167
        k(    7) = (   0.0000000   0.0833333   0.1250000), wk =   0.0208333
        k(    8) = (   0.0000000   0.0833333   0.2500000), wk =   0.0208333
        k(    9) = (   0.0000000   0.0833333   0.3750000), wk =   0.0208333
        k(   10) = (   0.0000000   0.0833333  -0.5000000), wk =   0.0104167
        k(   11) = (   0.0000000   0.1666667   0.0000000), wk =   0.0104167
        k(   12) = (   0.0000000   0.1666667   0.1250000), wk =   0.0208333
        k(   13) = (   0.0000000   0.1666667   0.2500000), wk =   0.0208333
        k(   14) = (   0.0000000   0.1666667   0.3750000), wk =   0.0208333
        k(   15) = (   0.0000000   0.1666667  -0.5000000), wk =   0.0104167
        k(   16) = (   0.0000000   0.2500000   0.0000000), wk =   0.0104167
        k(   17) = (   0.0000000   0.2500000   0.1250000), wk =   0.0208333
        k(   18) = (   0.0000000   0.2500000   0.2500000), wk =   0.0208333
        k(   19) = (   0.0000000   0.2500000   0.3750000), wk =   0.0208333
        k(   20) = (   0.0000000   0.2500000  -0.5000000), wk =   0.0104167
        k(   21) = (   0.0000000   0.3333333   0.0000000), wk =   0.0104167
        k(   22) = (   0.0000000   0.3333333   0.1250000), wk =   0.0208333
        k(   23) = (   0.0000000   0.3333333   0.2500000), wk =   0.0208333
        k(   24) = (   0.0000000   0.3333333   0.3750000), wk =   0.0208333
        k(   25) = (   0.0000000   0.3333333  -0.5000000), wk =   0.0104167
        k(   26) = (   0.0000000   0.4166667   0.0000000), wk =   0.0104167
        k(   27) = (   0.0000000   0.4166667   0.1250000), wk =   0.0208333
        k(   28) = (   0.0000000   0.4166667   0.2500000), wk =   0.0208333
        k(   29) = (   0.0000000   0.4166667   0.3750000), wk =   0.0208333
        k(   30) = (   0.0000000   0.4166667  -0.5000000), wk =   0.0104167
        k(   31) = (   0.0000000  -0.5000000   0.0000000), wk =   0.0052083
        k(   32) = (   0.0000000  -0.5000000   0.1250000), wk =   0.0104167
        k(   33) = (   0.0000000  -0.5000000   0.2500000), wk =   0.0104167
        k(   34) = (   0.0000000  -0.5000000   0.3750000), wk =   0.0104167
        k(   35) = (   0.0000000  -0.5000000  -0.5000000), wk =   0.0052083
        k(   36) = (   0.0833333   0.0833333   0.0000000), wk =   0.0104167
        k(   37) = (   0.0833333   0.0833333   0.1250000), wk =   0.0208333
        k(   38) = (   0.0833333   0.0833333   0.2500000), wk =   0.0208333
        k(   39) = (   0.0833333   0.0833333   0.3750000), wk =   0.0208333
        k(   40) = (   0.0833333   0.0833333  -0.5000000), wk =   0.0104167
        k(   41) = (   0.0833333   0.1666667   0.0000000), wk =   0.0208333
        k(   42) = (   0.0833333   0.1666667   0.1250000), wk =   0.0416667
        k(   43) = (   0.0833333   0.1666667   0.2500000), wk =   0.0416667
        k(   44) = (   0.0833333   0.1666667   0.3750000), wk =   0.0416667
        k(   45) = (   0.0833333   0.1666667  -0.5000000), wk =   0.0208333
        k(   46) = (   0.0833333   0.2500000   0.0000000), wk =   0.0208333
        k(   47) = (   0.0833333   0.2500000   0.1250000), wk =   0.0416667
        k(   48) = (   0.0833333   0.2500000   0.2500000), wk =   0.0416667
        k(   49) = (   0.0833333   0.2500000   0.3750000), wk =   0.0416667
        k(   50) = (   0.0833333   0.2500000  -0.5000000), wk =   0.0208333
        k(   51) = (   0.0833333   0.3333333   0.0000000), wk =   0.0208333
        k(   52) = (   0.0833333   0.3333333   0.1250000), wk =   0.0416667
        k(   53) = (   0.0833333   0.3333333   0.2500000), wk =   0.0416667
        k(   54) = (   0.0833333   0.3333333   0.3750000), wk =   0.0416667
        k(   55) = (   0.0833333   0.3333333  -0.5000000), wk =   0.0208333
        k(   56) = (   0.0833333   0.4166667   0.0000000), wk =   0.0208333
        k(   57) = (   0.0833333   0.4166667   0.1250000), wk =   0.0416667
        k(   58) = (   0.0833333   0.4166667   0.2500000), wk =   0.0416667
        k(   59) = (   0.0833333   0.4166667   0.3750000), wk =   0.0416667
        k(   60) = (   0.0833333   0.4166667  -0.5000000), wk =   0.0208333
        k(   61) = (   0.1666667   0.1666667   0.0000000), wk =   0.0104167
        k(   62) = (   0.1666667   0.1666667   0.1250000), wk =   0.0208333
        k(   63) = (   0.1666667   0.1666667   0.2500000), wk =   0.0208333
        k(   64) = (   0.1666667   0.1666667   0.3750000), wk =   0.0208333
        k(   65) = (   0.1666667   0.1666667  -0.5000000), wk =   0.0104167
        k(   66) = (   0.1666667   0.2500000   0.0000000), wk =   0.0208333
        k(   67) = (   0.1666667   0.2500000   0.1250000), wk =   0.0416667
        k(   68) = (   0.1666667   0.2500000   0.2500000), wk =   0.0416667
        k(   69) = (   0.1666667   0.2500000   0.3750000), wk =   0.0416667
        k(   70) = (   0.1666667   0.2500000  -0.5000000), wk =   0.0208333
        k(   71) = (   0.1666667   0.3333333   0.0000000), wk =   0.0208333
        k(   72) = (   0.1666667   0.3333333   0.1250000), wk =   0.0416667
        k(   73) = (   0.1666667   0.3333333   0.2500000), wk =   0.0416667
        k(   74) = (   0.1666667   0.3333333   0.3750000), wk =   0.0416667
        k(   75) = (   0.1666667   0.3333333  -0.5000000), wk =   0.0208333
        k(   76) = (   0.1666667   0.4166667   0.0000000), wk =   0.0104167
        k(   77) = (   0.1666667   0.4166667   0.1250000), wk =   0.0208333
        k(   78) = (   0.1666667   0.4166667   0.2500000), wk =   0.0208333
        k(   79) = (   0.1666667   0.4166667   0.3750000), wk =   0.0208333
        k(   80) = (   0.1666667   0.4166667  -0.5000000), wk =   0.0104167
        k(   81) = (   0.2500000   0.2500000   0.0000000), wk =   0.0104167
        k(   82) = (   0.2500000   0.2500000   0.1250000), wk =   0.0208333
        k(   83) = (   0.2500000   0.2500000   0.2500000), wk =   0.0208333
        k(   84) = (   0.2500000   0.2500000   0.3750000), wk =   0.0208333
        k(   85) = (   0.2500000   0.2500000  -0.5000000), wk =   0.0104167
        k(   86) = (   0.2500000   0.3333333   0.0000000), wk =   0.0208333
        k(   87) = (   0.2500000   0.3333333   0.1250000), wk =   0.0416667
        k(   88) = (   0.2500000   0.3333333   0.2500000), wk =   0.0416667
        k(   89) = (   0.2500000   0.3333333   0.3750000), wk =   0.0416667
        k(   90) = (   0.2500000   0.3333333  -0.5000000), wk =   0.0208333
        k(   91) = (   0.3333333   0.3333333   0.0000000), wk =   0.0034722
        k(   92) = (   0.3333333   0.3333333   0.1250000), wk =   0.0069444
        k(   93) = (   0.3333333   0.3333333   0.2500000), wk =   0.0069444
        k(   94) = (   0.3333333   0.3333333   0.3750000), wk =   0.0069444
        k(   95) = (   0.3333333   0.3333333  -0.5000000), wk =   0.0034722

     Dense  grid:    51445 G-vectors     FFT dimensions: (  45,  45,  72)

     Smooth grid:    18305 G-vectors     FFT dimensions: (  30,  30,  48)

     Dynamical RAM for                 wfc:       1.08 MB

     Dynamical RAM for     wfc (w. buffer):     103.26 MB

     Dynamical RAM for           str. fact:       1.57 MB

     Dynamical RAM for           local pot:       0.00 MB

     Dynamical RAM for          nlocal pot:       1.80 MB

     Dynamical RAM for                qrad:       3.21 MB

     Dynamical RAM for          rho,v,vnew:       5.69 MB

     Dynamical RAM for               rhoin:       1.90 MB

     Dynamical RAM for            rho*nmix:      12.56 MB

     Dynamical RAM for           G-vectors:       3.08 MB

     Dynamical RAM for          h,s,v(r/c):       0.18 MB

     Dynamical RAM for          <psi|beta>:       0.02 MB

     Dynamical RAM for                 psi:       2.15 MB

     Dynamical RAM for                hpsi:       2.15 MB

     Dynamical RAM for                spsi:       2.15 MB

     Dynamical RAM for      wfcinit/wfcrot:       2.39 MB

     Dynamical RAM for           addusdens:     147.58 MB

     Dynamical RAM for          addusforce:     149.55 MB

     Dynamical RAM for         addusstress:     157.78 MB

     Estimated static dynamical RAM per process >     128.44 MB

     Estimated max dynamical RAM per process >     298.78 MB

     Check: negative core charge=   -0.000003

     Initial potential from superposition of free atoms

     starting charge      51.9997, renormalised to      52.0000
     Starting wfcs are   34 randomized atomic wfcs
     Checking if some PAW data can be deallocated... 

     total cpu time spent up to now is        8.5 secs

     Self-consistent Calculation

     iteration #  1     ecut=    50.00 Ry     beta= 0.40
     Davidson diagonalization with overlap

---- Real-time Memory Report at c_bands before calling an iterative solver
           209 MiB given to the printing process from OS
             0 MiB allocation reported by mallinfo(arena+hblkhd)
          4541 MiB available memory on the node where the printing process lives
------------------
     ethr =  1.00E-02,  avg # of iterations =  2.9

     total cpu time spent up to now is       29.9 secs

     total energy              =   -1006.26113456 Ry
     estimated scf accuracy    <       0.93910139 Ry

     iteration #  2     ecut=    50.00 Ry     beta= 0.40
     Davidson diagonalization with overlap

---- Real-time Memory Report at c_bands before calling an iterative solver
           350 MiB given to the printing process from OS
             0 MiB allocation reported by mallinfo(arena+hblkhd)
          4557 MiB available memory on the node where the printing process lives
------------------
     ethr =  1.81E-03,  avg # of iterations =  2.0

     total cpu time spent up to now is       51.9 secs

     WARNING: integrated charge=    52.00065304, expected=    52.00000000

     total energy              =   -1006.52097595 Ry
     estimated scf accuracy    <       0.18076709 Ry

     iteration #  3     ecut=    50.00 Ry     beta= 0.40
     Davidson diagonalization with overlap

---- Real-time Memory Report at c_bands before calling an iterative solver
           353 MiB given to the printing process from OS
             0 MiB allocation reported by mallinfo(arena+hblkhd)
          4552 MiB available memory on the node where the printing process lives
------------------
     ethr =  3.48E-04,  avg # of iterations =  2.0

     total cpu time spent up to now is       71.9 secs

     WARNING: integrated charge=    52.00085702, expected=    52.00000000

     total energy              =   -1006.54728570 Ry
     estimated scf accuracy    <       0.01122424 Ry

     iteration #  4     ecut=    50.00 Ry     beta= 0.40
     Davidson diagonalization with overlap

---- Real-time Memory Report at c_bands before calling an iterative solver
           353 MiB given to the printing process from OS
             0 MiB allocation reported by mallinfo(arena+hblkhd)
          4552 MiB available memory on the node where the printing process lives
------------------
     ethr =  2.16E-05,  avg # of iterations =  3.5

     total cpu time spent up to now is       95.2 secs

     WARNING: integrated charge=    52.00083590, expected=    52.00000000

     total energy              =   -1006.54795964 Ry
     estimated scf accuracy    <       0.00138021 Ry

     iteration #  5     ecut=    50.00 Ry     beta= 0.40
     Davidson diagonalization with overlap

---- Real-time Memory Report at c_bands before calling an iterative solver
           354 MiB given to the printing process from OS
             0 MiB allocation reported by mallinfo(arena+hblkhd)
          4552 MiB available memory on the node where the printing process lives
------------------
     ethr =  2.65E-06,  avg # of iterations =  3.4

     total cpu time spent up to now is      116.8 secs

     WARNING: integrated charge=    52.00084308, expected=    52.00000000

     total energy              =   -1006.54798411 Ry
     estimated scf accuracy    <       0.00005484 Ry

     iteration #  6     ecut=    50.00 Ry     beta= 0.40
     Davidson diagonalization with overlap

---- Real-time Memory Report at c_bands before calling an iterative solver
           354 MiB given to the printing process from OS
             0 MiB allocation reported by mallinfo(arena+hblkhd)
          4550 MiB available memory on the node where the printing process lives
------------------
     ethr =  1.05E-07,  avg # of iterations =  3.0

     total cpu time spent up to now is      142.6 secs

     WARNING: integrated charge=    52.00087658, expected=    52.00000000

     total energy              =   -1006.54796935 Ry
     estimated scf accuracy    <       0.00005531 Ry

     iteration #  7     ecut=    50.00 Ry     beta= 0.40
     Davidson diagonalization with overlap

---- Real-time Memory Report at c_bands before calling an iterative solver
           355 MiB given to the printing process from OS
             0 MiB allocation reported by mallinfo(arena+hblkhd)
          4553 MiB available memory on the node where the printing process lives
------------------
     ethr =  1.05E-07,  avg # of iterations =  2.0

     total cpu time spent up to now is      163.6 secs

     WARNING: integrated charge=    52.00085638, expected=    52.00000000

     total energy              =   -1006.54800934 Ry
     estimated scf accuracy    <       0.00000021 Ry

     iteration #  8     ecut=    50.00 Ry     beta= 0.40
     Davidson diagonalization with overlap

---- Real-time Memory Report at c_bands before calling an iterative solver
           356 MiB given to the printing process from OS
             0 MiB allocation reported by mallinfo(arena+hblkhd)
          4552 MiB available memory on the node where the printing process lives
------------------
     ethr =  4.03E-10,  avg # of iterations =  3.4

     total cpu time spent up to now is      189.5 secs

     WARNING: integrated charge=    52.00084843, expected=    52.00000000

     total energy              =   -1006.54800849 Ry
     estimated scf accuracy    <       0.00000018 Ry

     iteration #  9     ecut=    50.00 Ry     beta= 0.40
     Davidson diagonalization with overlap

---- Real-time Memory Report at c_bands before calling an iterative solver
           356 MiB given to the printing process from OS
             0 MiB allocation reported by mallinfo(arena+hblkhd)
          4552 MiB available memory on the node where the printing process lives
------------------
     ethr =  3.52E-10,  avg # of iterations =  2.0

     total cpu time spent up to now is      209.8 secs

     End of self-consistent calculation

          k = 0.0000 0.0000 0.0000 (  2297 PWs)   bands (ev):

  -117.0801-117.0800 -71.2733 -71.2720 -71.2693 -71.2693 -71.2690 -71.2690
   -10.6256 -10.1299   1.1656   1.1656   1.1904   1.3045   1.3045   1.7236
     1.8923   1.8923   2.0315   2.0315   2.3460   5.6429   5.6429   6.2133
     6.2550   6.2550   6.7868  10.8372  13.8806  18.2873  18.2874

     occupation numbers 
     1.0000   1.0000   1.0000   1.0000   1.0000   1.0000   1.0000   1.0000
     1.0000   1.0000   1.0000   1.0000   1.0000   1.0000   1.0000   1.0000
     1.0000   1.0000   1.0000   1.0000   1.0000   1.0000   1.0000   1.0038
     1.0084   1.0084   0.3380   0.0000   0.0000   0.0000   0.0000

          k = 0.0000 0.0000 0.0775 (  2279 PWs)   bands (ev):

  -117.0800-117.0800 -71.2732 -71.2719 -71.2693 -71.2693 -71.2689 -71.2689
   -10.6074 -10.1495   1.1685   1.1685   1.1777   1.2965   1.2965   1.5674
     1.8996   1.8996   2.0284   2.0284   2.5862   5.6667   5.6667   5.8077
     6.2323   6.2323   7.2322  10.7224  13.9891  18.2924  18.2924

     occupation numbers 
     1.0000   1.0000   1.0000   1.0000   1.0000   1.0000   1.0000   1.0000
     1.0000   1.0000   1.0000   1.0000   1.0000   1.0000   1.0000   1.0000
     1.0000   1.0000   1.0000   1.0000   1.0000   1.0000   1.0000   1.0000
     1.0056   1.0056   0.0001   0.0000   0.0000   0.0000   0.0000

          k = 0.0000 0.0000 0.1550 (  2274 PWs)   bands (ev):

  -117.0800-117.0800 -71.2730 -71.2720 -71.2692 -71.2692 -71.2690 -71.2690
   -10.5554 -10.2049   1.1479   1.1777   1.1777   1.2752   1.2752   1.3502
     1.9194   1.9194   2.0184   2.0184   3.0464   5.2403   5.7345   5.7345
     6.1674   6.1674   7.9060  10.3957  14.3140  17.6554  18.3203

     occupation numbers 
     1.0000   1.0000   1.0000   1.0000   1.0000   1.0000   1.0000   1.0000
     1.0000   1.0000   1.0000   1.0000   1.0000   1.0000   1.0000   1.0000
     1.0000   1.0000   1.0000   1.0000   1.0000   1.0000   1.0000   1.0000
     1.0015   1.0015   0.0000   0.0000   0.0000   0.0000   0.0000

          k = 0.0000 0.0000 0.2325 (  2298 PWs)   bands (ev):

  -117.0800-117.0800 -71.2729 -71.2723 -71.2692 -71.2692 -71.2691 -71.2691
   -10.4767 -10.2871   1.1229   1.1942   1.1942   1.2020   1.2468   1.2468
     1.9468   1.9468   2.0005   2.0005   3.5719   4.6774   5.8352   5.8352
     6.0695   6.0695   8.6070   9.9003  14.8557  16.5679  18.3987

     occupation numbers 
     1.0000   1.0000   1.0000   1.0000   1.0000   1.0000   1.0000   1.0000
     1.0000   1.0000   1.0000   1.0000   1.0000   1.0000   1.0000   1.0000
     1.0000   1.0000   1.0000   1.0000   1.0000   1.0000   1.0000   1.0000
     1.0001   1.0001   0.0000   0.0000   0.0000   0.0000   0.0000

          k = 0.0000 0.0000-0.3100 (  2316 PWs)   bands (ev):

  -117.0800-117.0800 -71.2727 -71.2727 -71.2692 -71.2692 -71.2692 -71.2692
   -10.3826 -10.3826   1.1319   1.1319   1.2180   1.2180   1.2180   1.2180
     1.9756   1.9756   1.9756   1.9756   4.1208   4.1208   5.9529   5.9529
     5.9529   5.9529   9.2872   9.2872  15.6131  15.6131  18.5437

     occupation numbers 
     1.0000   1.0000   1.0000   1.0000   1.0000   1.0000   1.0000   1.0000
     1.0000   1.0000   1.0000   1.0000   1.0000   1.0000   1.0000   1.0000
     1.0000   1.0000   1.0000   1.0000   1.0000   1.0000   1.0000   1.0000
     1.0000   1.0000   0.0000   0.0000   0.0000   0.0000   0.0000

          k = 0.0000 0.0962 0.0000 (  2281 PWs)   bands (ev):

  -117.0800-117.0800 -71.2732 -71.2720 -71.2693 -71.2692 -71.2691 -71.2690
   -10.5987 -10.1179   1.1450   1.1820   1.2100   1.3076   1.3277   1.7240
     1.8825   1.8909   2.0338   2.0811   2.3604   5.4139   5.5688   5.7433
     6.1777   6.2163   7.3771  11.0919  13.8968  17.6201  18.3280

     occupation numbers 
     1.0000   1.0000   1.0000   1.0000   1.0000   1.0000   1.0000   1.0000
     1.0000   1.0000   1.0000   1.0000   1.0000   1.0000   1.0000   1.0000
     1.0000   1.0000   1.0000   1.0000   1.0000   1.0000   1.0000   1.0000
     1.0018   1.0041   0.0000   0.0000   0.0000   0.0000   0.0000

          k = 0.0000 0.0962 0.0775 (  2284 PWs)   bands (ev):

  -117.0800-117.0800 -71.2732 -71.2720 -71.2692 -71.2692 -71.2691 -71.2691
   -10.5810 -10.1368   1.1391   1.1852   1.2058   1.2974   1.3195   1.5814
     1.8908   1.8981   2.0303   2.0500   2.6136   5.4272   5.5580   5.5941
     6.1460   6.1923   7.6247  10.9685  14.0052  17.6294  18.3335

     occupation numbers 
     1.0000   1.0000   1.0000   1.0000   1.0000   1.0000   1.0000   1.0000
     1.0000   1.0000   1.0000   1.0000   1.0000   1.0000   1.0000   1.0000
     1.0000   1.0000   1.0000   1.0000   1.0000   1.0000   1.0000   1.0000
     1.0009   1.0025   0.0000   0.0000   0.0000   0.0000   0.0000

          k = 0.0000 0.0962 0.1550 (  2277 PWs)   bands (ev):

  -117.0800-117.0800 -71.2730 -71.2721 -71.2692 -71.2692 -71.2691 -71.2690
   -10.5304 -10.1904   1.1200   1.1953   1.2037   1.2625   1.2975   1.3795
     1.9131   1.9179   2.0194   2.0279   3.0735   5.1074   5.5334   5.6658
     6.0607   6.1236   8.1728  10.6226  14.3267  17.4496  17.9308

     occupation numbers 
     1.0000   1.0000   1.0000   1.0000   1.0000   1.0000   1.0000   1.0000
     1.0000   1.0000   1.0000   1.0000   1.0000   1.0000   1.0000   1.0000
     1.0000   1.0000   1.0000   1.0000   1.0000   1.0000   1.0000   1.0000
     1.0001   1.0005   0.0000   0.0000   0.0000   0.0000   0.0000

          k = 0.0000 0.0962 0.2325 (  2295 PWs)   bands (ev):

  -117.0800-117.0800 -71.2728 -71.2724 -71.2692 -71.2692 -71.2691 -71.2691
   -10.4539 -10.2699   1.1010   1.1745   1.2130   1.2205   1.2680   1.2817
     1.9438   1.9454   2.0005   2.0050   3.5872   4.6225   5.6494   5.7723
     5.9360   6.0201   8.8243  10.1095  14.8573  16.5118  17.9387

     occupation numbers 
     1.0000   1.0000   1.0000   1.0000   1.0000   1.0000   1.0000   1.0000
     1.0000   1.0000   1.0000   1.0000   1.0000   1.0000   1.0000   1.0000
     1.0000   1.0000   1.0000   1.0000   1.0000   1.0000   1.0000   1.0000
     1.0000   1.0000   0.0000   0.0000   0.0000   0.0000   0.0000

          k = 0.0000 0.0962-0.3100 (  2298 PWs)   bands (ev):

  -117.0800-117.0800 -71.2727 -71.2727 -71.2692 -71.2692 -71.2691 -71.2691
   -10.3625 -10.3625   1.1122   1.1122   1.2381   1.2381   1.2430   1.2430
     1.9748   1.9748   1.9762   1.9762   4.1107   4.1107   5.7913   5.7913
     5.8968   5.8968   9.4903   9.4903  15.5936  15.5936  18.1140

     occupation numbers 
     1.0000   1.0000   1.0000   1.0000   1.0000   1.0000   1.0000   1.0000
     1.0000   1.0000   1.0000   1.0000   1.0000   1.0000   1.0000   1.0000
     1.0000   1.0000   1.0000   1.0000   1.0000   1.0000   1.0000   1.0000
     1.0000   1.0000   0.0000   0.0000   0.0000   0.0000   0.0000

          k = 0.0000 0.1925 0.0000 (  2277 PWs)   bands (ev):

  -117.0800-117.0800 -71.2731 -71.2720 -71.2694 -71.2693 -71.2691 -71.2691
   -10.5232 -10.0860   1.1052   1.2248   1.2447   1.3297   1.3939   1.7395
     1.8560   1.8922   2.0390   2.1715   2.4440   4.8080   5.1649   5.3688
     6.0662   6.1072   8.2248  11.7098  13.9444  16.4190  17.7891

     occupation numbers 
     1.0000   1.0000   1.0000   1.0000   1.0000   1.0000   1.0000   1.0000
     1.0000   1.0000   1.0000   1.0000   1.0000   1.0000   1.0000   1.0000
     1.0000   1.0000   1.0000   1.0000   1.0000   1.0000   1.0000   1.0000
     1.0001   1.0004   0.0000   0.0000   0.0000   0.0000   0.0000

          k = 0.0000 0.1925 0.0775 (  2280 PWs)   bands (ev):

  -117.0800-117.0800 -71.2731 -71.2720 -71.2694 -71.2693 -71.2692 -71.2691
   -10.5069 -10.1029   1.0974   1.2290   1.2385   1.3178   1.3849   1.6216
     1.8687   1.8990   2.0347   2.0996   2.7045   4.8142   5.1018   5.3977
     6.0272   6.0798   8.3736  11.5623  14.0480  16.4394  17.7215

     occupation numbers 
     1.0000   1.0000   1.0000   1.0000   1.0000   1.0000   1.0000   1.0000
     1.0000   1.0000   1.0000   1.0000   1.0000   1.0000   1.0000   1.0000
     1.0000   1.0000   1.0000   1.0000   1.0000   1.0000   1.0000   1.0000
     1.0000   1.0002   0.0000   0.0000   0.0000   0.0000   0.0000

          k = 0.0000 0.1925 0.1550 (  2282 PWs)   bands (ev):

  -117.0800-117.0800 -71.2730 -71.2722 -71.2693 -71.2692 -71.2692 -71.2691
   -10.4604 -10.1512   1.0776   1.2134   1.2419   1.2877   1.3606   1.4411
     1.8986   1.9179   2.0219   2.0534   3.1450   4.7048   5.0837   5.4798
     5.9015   6.0015   8.7756  11.1652  14.3450  16.4341  17.4762

     occupation numbers 
     1.0000   1.0000   1.0000   1.0000   1.0000   1.0000   1.0000   1.0000
     1.0000   1.0000   1.0000   1.0000   1.0000   1.0000   1.0000   1.0000
     1.0000   1.0000   1.0000   1.0000   1.0000   1.0000   1.0000   1.0000
     1.0000   1.0000   0.0000   0.0000   0.0000   0.0000   0.0000

          k = 0.0000 0.1925 0.2325 (  2277 PWs)   bands (ev):

  -117.0800-117.0800 -71.2728 -71.2724 -71.2693 -71.2692 -71.2692 -71.2691
   -10.3904 -10.2230   1.0627   1.1413   1.2637   1.2782   1.3277   1.3432
     1.9382   1.9447   2.0011   2.0184   3.6065   4.4116   5.2347   5.6014
     5.6983   5.8836   9.3386  10.6081  14.8165  16.0980  17.2711

     occupation numbers 
     1.0000   1.0000   1.0000   1.0000   1.0000   1.0000   1.0000   1.0000
     1.0000   1.0000   1.0000   1.0000   1.0000   1.0000   1.0000   1.0000
     1.0000   1.0000   1.0000   1.0000   1.0000   1.0000   1.0000   1.0000
     1.0000   1.0000   0.0000   0.0000   0.0000   0.0000   0.0000

          k = 0.0000 0.1925-0.3100 (  2284 PWs)   bands (ev):

  -117.0800-117.0800 -71.2726 -71.2726 -71.2693 -71.2693 -71.2691 -71.2691
   -10.3070 -10.3070   1.0788   1.0788   1.2934   1.2934   1.2986   1.2986
     1.9741   1.9741   1.9799   1.9799   4.0368   4.0368   5.4584   5.4585
     5.7433   5.7433   9.9745   9.9745  15.4379  15.4379  17.4085

     occupation numbers 
     1.0000   1.0000   1.0000   1.0000   1.0000   1.0000   1.0000   1.0000
     1.0000   1.0000   1.0000   1.0000   1.0000   1.0000   1.0000   1.0000
     1.0000   1.0000   1.0000   1.0000   1.0000   1.0000   1.0000   1.0000
     1.0000   1.0000   0.0000   0.0000   0.0000   0.0000   0.0000

          k = 0.0000 0.2887 0.0000 (  2269 PWs)   bands (ev):

  -117.0800-117.0800 -71.2730 -71.2720 -71.2696 -71.2693 -71.2693 -71.2691
   -10.4144 -10.0457   1.0731   1.2671   1.2763   1.4010   1.4923   1.7717
     1.8295   1.9080   2.0453   2.2076   2.6564   4.1043   4.6346   5.0966
     5.8786   5.9518   9.1255  12.4039  13.9919  15.2957  16.8583

     occupation numbers 
     1.0000   1.0000   1.0000   1.0000   1.0000   1.0000   1.0000   1.0000
     1.0000   1.0000   1.0000   1.0000   1.0000   1.0000   1.0000   1.0000
     1.0000   1.0000   1.0000   1.0000   1.0000   1.0000   1.0000   1.0000
     1.0000   1.0000   0.0000   0.0000   0.0000   0.0000   0.0000

          k = 0.0000 0.2887 0.0775 (  2272 PWs)   bands (ev):

  -117.0800-117.0800 -71.2730 -71.2721 -71.2696 -71.2693 -71.2693 -71.2691
   -10.4004 -10.0597   1.0647   1.2523   1.2825   1.3916   1.4817   1.6756
     1.8489   1.9136   2.0403   2.1459   2.8576   4.1360   4.6023   5.1306
     5.8602   5.9201   9.2190  12.2262  14.0702  15.3292  16.8391

     occupation numbers 
     1.0000   1.0000   1.0000   1.0000   1.0000   1.0000   1.0000   1.0000
     1.0000   1.0000   1.0000   1.0000   1.0000   1.0000   1.0000   1.0000
     1.0000   1.0000   1.0000   1.0000   1.0000   1.0000   1.0000   1.0000
     1.0000   1.0000   0.0000   0.0000   0.0000   0.0000   0.0000

          k = 0.0000 0.2887 0.1550 (  2274 PWs)   bands (ev):

  -117.0800-117.0800 -71.2729 -71.2722 -71.2696 -71.2693 -71.2693 -71.2692
   -10.3605 -10.0997   1.0452   1.2027   1.3010   1.3710   1.4528   1.5176
     1.8884   1.9293   2.0260   2.0869   3.2066   4.1486   4.6234   5.2264
     5.7647   5.8299   9.5024  11.7716  14.2853  15.3744  16.7739

     occupation numbers 
     1.0000   1.0000   1.0000   1.0000   1.0000   1.0000   1.0000   1.0000
     1.0000   1.0000   1.0000   1.0000   1.0000   1.0000   1.0000   1.0000
     1.0000   1.0000   1.0000   1.0000   1.0000   1.0000   1.0000   1.0000
     1.0000   1.0000   0.0000   0.0000   0.0000   0.0000   0.0000

          k = 0.0000 0.2887 0.2325 (  2276 PWs)   bands (ev):

  -117.0800-117.0800 -71.2728 -71.2724 -71.2695 -71.2694 -71.2692 -71.2692
   -10.3007 -10.1595   1.0334   1.1205   1.3308   1.3612   1.4126   1.4216
     1.9385   1.9523   2.0045   2.0399   3.5296   4.0132   4.8645   5.3677
     5.5436   5.6939   9.9610  11.1751  14.6057  15.2804  16.7895

     occupation numbers 
     1.0000   1.0000   1.0000   1.0000   1.0000   1.0000   1.0000   1.0000
     1.0000   1.0000   1.0000   1.0000   1.0000   1.0000   1.0000   1.0000
     1.0000   1.0000   1.0000   1.0000   1.0000   1.0000   1.0000   1.0000
     1.0000   1.0000   0.0000   0.0000   0.0000   0.0000   0.0000

          k = 0.0000 0.2887-0.3100 (  2278 PWs)   bands (ev):

  -117.0800-117.0800 -71.2726 -71.2726 -71.2695 -71.2695 -71.2692 -71.2692
   -10.2302 -10.2302   1.0546   1.0546   1.3696   1.3696   1.3768   1.3768
     1.9787   1.9787   1.9907   1.9907   3.7960   3.7960   5.2161   5.2161
     5.5319   5.5319  10.5432  10.5432  14.9782  14.9782  17.0556

     occupation numbers 
     1.0000   1.0000   1.0000   1.0000   1.0000   1.0000   1.0000   1.0000
     1.0000   1.0000   1.0000   1.0000   1.0000   1.0000   1.0000   1.0000
     1.0000   1.0000   1.0000   1.0000   1.0000   1.0000   1.0000   1.0000
     1.0000   1.0000   0.0000   0.0000   0.0000   0.0000   0.0000

          k = 0.0000 0.3849 0.0000 (  2268 PWs)   bands (ev):

  -117.0800-117.0800 -71.2729 -71.2722 -71.2698 -71.2696 -71.2693 -71.2691
   -10.2955 -10.0127   1.0733   1.2907   1.3172   1.5170   1.6009   1.7403
     1.8723   1.9440   2.0524   2.2161   2.8797   3.5115   4.1824   4.8199
     5.6263   5.7898  10.0314  12.9398  13.8366  14.4406  16.2862

     occupation numbers 
     1.0000   1.0000   1.0000   1.0000   1.0000   1.0000   1.0000   1.0000
     1.0000   1.0000   1.0000   1.0000   1.0000   1.0000   1.0000   1.0000
     1.0000   1.0000   1.0000   1.0000   1.0000   1.0000   1.0000   1.0000
     1.0000   1.0000   0.0000   0.0000   0.0000   0.0000   0.0000

          k = 0.0000 0.3849 0.0775 (  2267 PWs)   bands (ev):

  -117.0800-117.0800 -71.2729 -71.2722 -71.2698 -71.2695 -71.2693 -71.2691
   -10.2844 -10.0231   1.0634   1.2686   1.3260   1.5077   1.5879   1.6918
     1.8746   1.9476   2.0471   2.1783   2.9579   3.5807   4.1918   4.8591
     5.6374   5.7542  10.0795  12.7315  13.8987  14.4787  16.3063

     occupation numbers 
     1.0000   1.0000   1.0000   1.0000   1.0000   1.0000   1.0000   1.0000
     1.0000   1.0000   1.0000   1.0000   1.0000   1.0000   1.0000   1.0000
     1.0000   1.0000   1.0000   1.0000   1.0000   1.0000   1.0000   1.0000
     1.0000   1.0000   0.0000   0.0000   0.0000   0.0000   0.0000

          k = 0.0000 0.3849 0.1550 (  2265 PWs)   bands (ev):

  -117.0800-117.0800 -71.2728 -71.2723 -71.2697 -71.2695 -71.2693 -71.2692
   -10.2530 -10.0529   1.0411   1.2035   1.3518   1.4865   1.5519   1.5863
     1.9071   1.9578   2.0330   2.1211   3.0980   3.6343   4.3580   4.9693
     5.6132   5.6526  10.2485  12.2439  14.0357  14.5359  16.3617

     occupation numbers 
     1.0000   1.0000   1.0000   1.0000   1.0000   1.0000   1.0000   1.0000
     1.0000   1.0000   1.0000   1.0000   1.0000   1.0000   1.0000   1.0000
     1.0000   1.0000   1.0000   1.0000   1.0000   1.0000   1.0000   1.0000
     1.0000   1.0000   0.0000   0.0000   0.0000   0.0000   0.0000

          k = 0.0000 0.3849 0.2325 (  2271 PWs)   bands (ev):

  -117.0800-117.0800 -71.2727 -71.2724 -71.2697 -71.2696 -71.2693 -71.2692
   -10.2064 -10.0980   1.0276   1.1148   1.3927   1.4712   1.5007   1.5127
     1.9582   1.9735   2.0137   2.0677   3.2438   3.5410   4.7389   5.1307
     5.4595   5.4996  10.5786  11.6510  14.2086  14.5148  16.5490

     occupation numbers 
     1.0000   1.0000   1.0000   1.0000   1.0000   1.0000   1.0000   1.0000
     1.0000   1.0000   1.0000   1.0000   1.0000   1.0000   1.0000   1.0000
     1.0000   1.0000   1.0000   1.0000   1.0000   1.0000   1.0000   1.0000
     1.0000   1.0000   0.0000   0.0000   0.0000   0.0000   0.0000

          k = 0.0000 0.3849-0.3100 (  2278 PWs)   bands (ev):

  -117.0800-117.0800 -71.2726 -71.2726 -71.2696 -71.2696 -71.2693 -71.2693
   -10.1519 -10.1519   1.0486   1.0486   1.4445   1.4445   1.4780   1.4780
     1.9929   1.9929   2.0136   2.0136   3.3949   3.3949   5.1489   5.1489
     5.3168   5.3168  11.0662  11.0662  14.3870  14.3870  16.9696

     occupation numbers 
     1.0000   1.0000   1.0000   1.0000   1.0000   1.0000   1.0000   1.0000
     1.0000   1.0000   1.0000   1.0000   1.0000   1.0000   1.0000   1.0000
     1.0000   1.0000   1.0000   1.0000   1.0000   1.0000   1.0000   1.0000
     1.0000   1.0000   0.0000   0.0000   0.0000   0.0000   0.0000

          k = 0.0000 0.4811 0.0000 (  2274 PWs)   bands (ev):

  -117.0800-117.0800 -71.2729 -71.2723 -71.2699 -71.2698 -71.2694 -71.2691
   -10.1958  -9.9994   1.0971   1.3393   1.3431   1.6420   1.6864   1.6934
     1.9223   1.9870   2.0595   2.1982   2.8147   3.2874   3.9465   4.6101
     5.3644   5.6670  10.8582  13.2441  13.3186  13.9433  16.0828

     occupation numbers 
     1.0000   1.0000   1.0000   1.0000   1.0000   1.0000   1.0000   1.0000
     1.0000   1.0000   1.0000   1.0000   1.0000   1.0000   1.0000   1.0000
     1.0000   1.0000   1.0000   1.0000   1.0000   1.0000   1.0000   1.0000
     1.0000   1.0000   0.0000   0.0000   0.0000   0.0000   0.0000

          k = 0.0000 0.4811 0.0775 (  2266 PWs)   bands (ev):

  -117.0800-117.0800 -71.2728 -71.2723 -71.2699 -71.2698 -71.2694 -71.2691
   -10.1877 -10.0062   1.0852   1.3084   1.3502   1.6345   1.6689   1.6710
     1.9349   1.9886   2.0543   2.1820   2.7998   3.3013   4.0526   4.6537
     5.4030   5.6286  10.8598  12.9180  13.5429  13.9562  16.0892

     occupation numbers 
     1.0000   1.0000   1.0000   1.0000   1.0000   1.0000   1.0000   1.0000
     1.0000   1.0000   1.0000   1.0000   1.0000   1.0000   1.0000   1.0000
     1.0000   1.0000   1.0000   1.0000   1.0000   1.0000   1.0000   1.0000
     1.0000   1.0000   0.0000   0.0000   0.0000   0.0000   0.0000

          k = 0.0000 0.4811 0.1550 (  2274 PWs)   bands (ev):

  -117.0800-117.0800 -71.2728 -71.2724 -71.2699 -71.2698 -71.2693 -71.2692
   -10.1651 -10.0261   1.0580   1.2190   1.3822   1.6124   1.6266   1.6277
     1.9680   1.9935   2.0415   2.1441   2.8166   3.2453   4.3730   4.7757
     5.4530   5.5190  10.9087  12.4578  13.7202  13.9802  16.1597

     occupation numbers 
     1.0000   1.0000   1.0000   1.0000   1.0000   1.0000   1.0000   1.0000
     1.0000   1.0000   1.0000   1.0000   1.0000   1.0000   1.0000   1.0000
     1.0000   1.0000   1.0000   1.0000   1.0000   1.0000   1.0000   1.0000
     1.0000   1.0000   0.0000   0.0000   0.0000   0.0000   0.0000

          k = 0.0000 0.4811 0.2325 (  2276 PWs)   bands (ev):

  -117.0800-117.0800 -71.2727 -71.2725 -71.2699 -71.2698 -71.2693 -71.2692
   -10.1319 -10.0566   1.0389   1.1197   1.4326   1.5654   1.5889   1.6002
     2.0016   2.0110   2.0266   2.1003   2.8895   3.1263   4.7888   4.9528
     5.3536   5.3933  11.0926  11.9403  13.8428  13.9781  16.4137

     occupation numbers 
     1.0000   1.0000   1.0000   1.0000   1.0000   1.0000   1.0000   1.0000
     1.0000   1.0000   1.0000   1.0000   1.0000   1.0000   1.0000   1.0000
     1.0000   1.0000   1.0000   1.0000   1.0000   1.0000   1.0000   1.0000
     1.0000   1.0000   0.0000   0.0000   0.0000   0.0000   0.0000

          k = 0.0000 0.4811-0.3100 (  2280 PWs)   bands (ev):

  -117.0800-117.0800 -71.2726 -71.2726 -71.2698 -71.2698 -71.2693 -71.2693
   -10.0936 -10.0936   1.0549   1.0549   1.4965   1.4965   1.5858   1.5858
     2.0128   2.0128   2.0559   2.0559   2.9990   2.9990   5.1555   5.1555
     5.1611   5.1611  11.4527  11.4527  13.9293  13.9293  16.9102

     occupation numbers 
     1.0000   1.0000   1.0000   1.0000   1.0000   1.0000   1.0000   1.0000
     1.0000   1.0000   1.0000   1.0000   1.0000   1.0000   1.0000   1.0000
     1.0000   1.0000   1.0000   1.0000   1.0000   1.0000   1.0000   1.0000
     1.0000   1.0000   0.0000   0.0000   0.0000   0.0000   0.0000

          k = 0.0000-0.5774 0.0000 (  2280 PWs)   bands (ev):

  -117.0800-117.0800 -71.2728 -71.2723 -71.2701 -71.2699 -71.2694 -71.2692
   -10.1531 -10.0003   1.1095   1.3457   1.3891   1.6228   1.7185   1.7616
     1.9601   2.0074   2.0628   2.1153   2.7376   3.2266   3.9411   4.5308
     5.2362   5.6210  11.2946  12.8810  13.5833  13.5988  16.0292

     occupation numbers 
     1.0000   1.0000   1.0000   1.0000   1.0000   1.0000   1.0000   1.0000
     1.0000   1.0000   1.0000   1.0000   1.0000   1.0000   1.0000   1.0000
     1.0000   1.0000   1.0000   1.0000   1.0000   1.0000   1.0000   1.0000
     1.0000   1.0000   0.0000   0.0000   0.0000   0.0000   0.0000

          k = 0.0000-0.5774 0.0775 (  2272 PWs)   bands (ev):

  -117.0800-117.0800 -71.2727 -71.2723 -71.2701 -71.2698 -71.2694 -71.2692
   -10.1466 -10.0054   1.0969   1.3406   1.3574   1.6205   1.7021   1.7460
     1.9803   2.0083   2.0575   2.1154   2.7183   3.1765   4.0860   4.5763
     5.2871   5.5817  11.2614  12.7599  13.6228  13.6277  16.0225

     occupation numbers 
     1.0000   1.0000   1.0000   1.0000   1.0000   1.0000   1.0000   1.0000
     1.0000   1.0000   1.0000   1.0000   1.0000   1.0000   1.0000   1.0000
     1.0000   1.0000   1.0000   1.0000   1.0000   1.0000   1.0000   1.0000
     1.0000   1.0000   0.0000   0.0000   0.0000   0.0000   0.0000

          k = 0.0000-0.5774 0.1550 (  2278 PWs)   bands (ev):

  -117.0800-117.0800 -71.2727 -71.2724 -71.2700 -71.2699 -71.2694 -71.2692
   -10.1285 -10.0203   1.0678   1.2312   1.3917   1.6174   1.6557   1.7085
     2.0110   2.0234   2.0454   2.1141   2.7047   3.0591   4.4324   4.7030
     5.3716   5.4691  11.2284  12.4439  13.6749  13.7051  16.0848

     occupation numbers 
     1.0000   1.0000   1.0000   1.0000   1.0000   1.0000   1.0000   1.0000
     1.0000   1.0000   1.0000   1.0000   1.0000   1.0000   1.0000   1.0000
     1.0000   1.0000   1.0000   1.0000   1.0000   1.0000   1.0000   1.0000
     1.0000   1.0000   0.0000   0.0000   0.0000   0.0000   0.0000

          k = 0.0000-0.5774 0.2325 (  2272 PWs)   bands (ev):

  -117.0800-117.0800 -71.2726 -71.2725 -71.2699 -71.2698 -71.2694 -71.2692
   -10.1021 -10.0435   1.0461   1.1239   1.4458   1.5887   1.6213   1.6682
     2.0157   2.0328   2.0642   2.1079   2.7372   2.9283   4.8347   4.8863
     5.2991   5.3593  11.3218  12.0186  13.7243  13.7514  16.3544

     occupation numbers 
     1.0000   1.0000   1.0000   1.0000   1.0000   1.0000   1.0000   1.0000
     1.0000   1.0000   1.0000   1.0000   1.0000   1.0000   1.0000   1.0000
     1.0000   1.0000   1.0000   1.0000   1.0000   1.0000   1.0000   1.0000
     1.0000   1.0000   0.0000   0.0000   0.0000   0.0000   0.0000

          k = 0.0000-0.5774-0.3100 (  2284 PWs)   bands (ev):

  -117.0800-117.0800 -71.2726 -71.2726 -71.2699 -71.2699 -71.2694 -71.2694
   -10.0721 -10.0721   1.0594   1.0594   1.5145   1.5145   1.6377   1.6377
     2.0228   2.0228   2.0923   2.0923   2.8156   2.8156   5.0954   5.0954
     5.1731   5.1731  11.6031  11.6032  13.7539  13.7539  16.8754

     occupation numbers 
     1.0000   1.0000   1.0000   1.0000   1.0000   1.0000   1.0000   1.0000
     1.0000   1.0000   1.0000   1.0000   1.0000   1.0000   1.0000   1.0000
     1.0000   1.0000   1.0000   1.0000   1.0000   1.0000   1.0000   1.0000
     1.0000   1.0000   0.0000   0.0000   0.0000   0.0000   0.0000

          k = 0.0833 0.1443 0.0000 (  2285 PWs)   bands (ev):

  -117.0800-117.0800 -71.2732 -71.2720 -71.2694 -71.2693 -71.2691 -71.2691
   -10.5475 -10.0959   1.1221   1.2050   1.2385   1.3156   1.3748   1.7326
     1.8662   1.8892   2.0370   2.1509   2.4097   5.0718   5.1696   5.5033
     6.1047   6.1262   7.9952  11.5278  13.9314  16.7928  17.9312

     occupation numbers 
     1.0000   1.0000   1.0000   1.0000   1.0000   1.0000   1.0000   1.0000
     1.0000   1.0000   1.0000   1.0000   1.0000   1.0000   1.0000   1.0000
     1.0000   1.0000   1.0000   1.0000   1.0000   1.0000   1.0000   1.0000
     1.0003   1.0006   0.0000   0.0000   0.0000   0.0000   0.0000

          k = 0.0833 0.1443 0.0775 (  2279 PWs)   bands (ev):

  -117.0800-117.0800 -71.2731 -71.2720 -71.2693 -71.2693 -71.2691 -71.2691
   -10.5307 -10.1135   1.1141   1.2077   1.2361   1.3027   1.3663   1.6086
     1.8763   1.8971   2.0330   2.0859   2.6734   5.0931   5.1062   5.4931
     6.0666   6.0996   8.1633  11.3879  14.0374  16.8056  17.9330

     occupation numbers 
     1.0000   1.0000   1.0000   1.0000   1.0000   1.0000   1.0000   1.0000
     1.0000   1.0000   1.0000   1.0000   1.0000   1.0000   1.0000   1.0000
     1.0000   1.0000   1.0000   1.0000   1.0000   1.0000   1.0000   1.0000
     1.0001   1.0003   0.0000   0.0000   0.0000   0.0000   0.0000

          k = 0.0833 0.1443 0.1550 (  2277 PWs)   bands (ev):

  -117.0800-117.0800 -71.2730 -71.2722 -71.2693 -71.2692 -71.2692 -71.2690
   -10.4829 -10.1635   1.0933   1.2096   1.2360   1.2624   1.3434   1.4230
     1.9033   1.9168   2.0208   2.0459   3.1234   4.8477   5.2068   5.5338
     5.9513   6.0237   8.6000  11.0066  14.3451  16.7649  17.8095

     occupation numbers 
     1.0000   1.0000   1.0000   1.0000   1.0000   1.0000   1.0000   1.0000
     1.0000   1.0000   1.0000   1.0000   1.0000   1.0000   1.0000   1.0000
     1.0000   1.0000   1.0000   1.0000   1.0000   1.0000   1.0000   1.0000
     1.0000   1.0000   0.0000   0.0000   0.0000   0.0000   0.0000

          k = 0.0833 0.1443 0.2325 (  2279 PWs)   bands (ev):

  -117.0800-117.0800 -71.2728 -71.2724 -71.2693 -71.2692 -71.2692 -71.2691
   -10.4107 -10.2378   1.0761   1.1517   1.2465   1.2495   1.3136   1.3263
     1.9401   1.9441   2.0004   2.0144   3.6055   4.4905   5.3641   5.6323
     5.7781   5.9101   9.1875  10.4625  14.8412  16.2811  17.4689

     occupation numbers 
     1.0000   1.0000   1.0000   1.0000   1.0000   1.0000   1.0000   1.0000
     1.0000   1.0000   1.0000   1.0000   1.0000   1.0000   1.0000   1.0000
     1.0000   1.0000   1.0000   1.0000   1.0000   1.0000   1.0000   1.0000
     1.0000   1.0000   0.0000   0.0000   0.0000   0.0000   0.0000

          k = 0.0833 0.1443-0.3100 (  2286 PWs)   bands (ev):

  -117.0800-117.0800 -71.2726 -71.2726 -71.2692 -71.2692 -71.2692 -71.2692
   -10.3247 -10.3247   1.0900   1.0900   1.2613   1.2613   1.2935   1.2935
     1.9735   1.9735   1.9791   1.9791   4.0698   4.0698   5.5581   5.5581
     5.7785   5.7785   9.8327   9.8327  15.5117  15.5117  17.5772

     occupation numbers 
     1.0000   1.0000   1.0000   1.0000   1.0000   1.0000   1.0000   1.0000
     1.0000   1.0000   1.0000   1.0000   1.0000   1.0000   1.0000   1.0000
     1.0000   1.0000   1.0000   1.0000   1.0000   1.0000   1.0000   1.0000
     1.0000   1.0000   0.0000   0.0000   0.0000   0.0000   0.0000

          k = 0.0833 0.2406 0.0000 (  2272 PWs)   bands (ev):

  -117.0800-117.0800 -71.2731 -71.2721 -71.2695 -71.2693 -71.2692 -71.2690
   -10.4552 -10.0598   1.0990   1.2360   1.2763   1.3540   1.4612   1.7601
     1.8398   1.8955   2.0422   2.2017   2.5724   4.4510   4.7069   5.2120
     5.9587   5.9669   8.8233  12.1851  14.0050  15.7633  17.1155

     occupation numbers 
     1.0000   1.0000   1.0000   1.0000   1.0000   1.0000   1.0000   1.0000
     1.0000   1.0000   1.0000   1.0000   1.0000   1.0000   1.0000   1.0000
     1.0000   1.0000   1.0000   1.0000   1.0000   1.0000   1.0000   1.0000
     1.0000   1.0000   0.0000   0.0000   0.0000   0.0000   0.0000

          k = 0.0833 0.2406 0.0775 (  2270 PWs)   bands (ev):

  -117.0800-117.0800 -71.2731 -71.2721 -71.2695 -71.2693 -71.2692 -71.2691
   -10.4403 -10.0750   1.0900   1.2344   1.2729   1.3432   1.4516   1.6555
     1.8549   1.9046   2.0375   2.1330   2.8011   4.4641   4.6930   5.2234
     5.9270   5.9432   8.9347  12.0186  14.0934  15.7843  17.1388

     occupation numbers 
     1.0000   1.0000   1.0000   1.0000   1.0000   1.0000   1.0000   1.0000
     1.0000   1.0000   1.0000   1.0000   1.0000   1.0000   1.0000   1.0000
     1.0000   1.0000   1.0000   1.0000   1.0000   1.0000   1.0000   1.0000
     1.0000   1.0000   0.0000   0.0000   0.0000   0.0000   0.0000

          k = 0.0833 0.2406 0.1550 (  2276 PWs)   bands (ev):

  -117.0800-117.0800 -71.2729 -71.2722 -71.2695 -71.2693 -71.2693 -71.2691
   -10.3979 -10.1182   1.0684   1.2081   1.2752   1.3194   1.4257   1.4877
     1.8909   1.9232   2.0237   2.0766   3.1962   4.3921   4.7669   5.2832
     5.8205   5.8555   9.2592  11.5837  14.3433  15.8005  17.1165

     occupation numbers 
     1.0000   1.0000   1.0000   1.0000   1.0000   1.0000   1.0000   1.0000
     1.0000   1.0000   1.0000   1.0000   1.0000   1.0000   1.0000   1.0000
     1.0000   1.0000   1.0000   1.0000   1.0000   1.0000   1.0000   1.0000
     1.0000   1.0000   0.0000   0.0000   0.0000   0.0000   0.0000

          k = 0.0833 0.2406 0.2325 (  2280 PWs)   bands (ev):

  -117.0800-117.0800 -71.2728 -71.2724 -71.2694 -71.2693 -71.2692 -71.2692
   -10.3341 -10.1827   1.0532   1.1338   1.2912   1.3115   1.3896   1.3957
     1.9377   1.9481   2.0025   2.0332   3.5838   4.1876   4.9968   5.3965
     5.6127   5.7191   9.7572  10.9982  14.7318  15.6416  17.0054

     occupation numbers 
     1.0000   1.0000   1.0000   1.0000   1.0000   1.0000   1.0000   1.0000
     1.0000   1.0000   1.0000   1.0000   1.0000   1.0000   1.0000   1.0000
     1.0000   1.0000   1.0000   1.0000   1.0000   1.0000   1.0000   1.0000
     1.0000   1.0000   0.0000   0.0000   0.0000   0.0000   0.0000

          k = 0.0833 0.2406-0.3100 (  2286 PWs)   bands (ev):

  -117.0800-117.0800 -71.2726 -71.2726 -71.2694 -71.2694 -71.2692 -71.2692
   -10.2585 -10.2585   1.0707   1.0707   1.3097   1.3097   1.3685   1.3685
     1.9749   1.9749   1.9881   1.9881   3.9154   3.9154   5.2980   5.2980
     5.5666   5.5666  10.3621  10.3621  15.2140  15.2140  17.0748

     occupation numbers 
     1.0000   1.0000   1.0000   1.0000   1.0000   1.0000   1.0000   1.0000
     1.0000   1.0000   1.0000   1.0000   1.0000   1.0000   1.0000   1.0000
     1.0000   1.0000   1.0000   1.0000   1.0000   1.0000   1.0000   1.0000
     1.0000   1.0000   0.0000   0.0000   0.0000   0.0000   0.0000

          k = 0.0833 0.3368 0.0000 (  2270 PWs)   bands (ev):

  -117.0800-117.0800 -71.2730 -71.2721 -71.2697 -71.2695 -71.2694 -71.2691
   -10.3409 -10.0235   1.0944   1.2689   1.3081   1.4461   1.5676   1.7695
     1.8394   1.9220   2.0493   2.2160   2.8100   3.8073   4.3056   4.8583
     5.7396   5.7842   9.7215  12.7879  14.0454  14.8251  16.4656

     occupation numbers 
     1.0000   1.0000   1.0000   1.0000   1.0000   1.0000   1.0000   1.0000
     1.0000   1.0000   1.0000   1.0000   1.0000   1.0000   1.0000   1.0000
     1.0000   1.0000   1.0000   1.0000   1.0000   1.0000   1.0000   1.0000
     1.0000   1.0000   0.0000   0.0000   0.0000   0.0000   0.0000

          k = 0.0833 0.3368 0.0775 (  2271 PWs)   bands (ev):

  -117.0800-117.0800 -71.2730 -71.2722 -71.2697 -71.2695 -71.2694 -71.2691
   -10.3287 -10.0353   1.0847   1.2579   1.3089   1.4375   1.5556   1.6942
     1.8488   1.9317   2.0442   2.1708   2.9482   3.8500   4.3082   4.8868
     5.7282   5.7600   9.7895  12.6038  14.0831  14.8634  16.5082

     occupation numbers 
     1.0000   1.0000   1.0000   1.0000   1.0000   1.0000   1.0000   1.0000
     1.0000   1.0000   1.0000   1.0000   1.0000   1.0000   1.0000   1.0000
     1.0000   1.0000   1.0000   1.0000   1.0000   1.0000   1.0000   1.0000
     1.0000   1.0000   0.0000   0.0000   0.0000   0.0000   0.0000

          k = 0.0833 0.3368 0.1550 (  2272 PWs)   bands (ev):

  -117.0800-117.0800 -71.2729 -71.2723 -71.2696 -71.2695 -71.2693 -71.2691
   -10.2938 -10.0692   1.0620   1.2096   1.3243   1.4186   1.5222   1.5538
     1.8899   1.9474   2.0306   2.1122   3.1885   3.8687   4.4368   4.9796
     5.6302   5.7054  10.0087  12.1356  14.2150  14.9186  16.5391

     occupation numbers 
     1.0000   1.0000   1.0000   1.0000   1.0000   1.0000   1.0000   1.0000
     1.0000   1.0000   1.0000   1.0000   1.0000   1.0000   1.0000   1.0000
     1.0000   1.0000   1.0000   1.0000   1.0000   1.0000   1.0000   1.0000
     1.0000   1.0000   0.0000   0.0000   0.0000   0.0000   0.0000

          k = 0.0833 0.3368 0.2325 (  2281 PWs)   bands (ev):

  -117.0800-117.0800 -71.2728 -71.2724 -71.2696 -71.2695 -71.2693 -71.2692
   -10.2418 -10.1202   1.0470   1.1297   1.3542   1.4058   1.4612   1.4826
     1.9446   1.9662   2.0118   2.0600   3.4032   3.7572   4.7749   5.1291
     5.4590   5.5471  10.3959  11.5368  14.4344  14.8773  16.5853

     occupation numbers 
     1.0000   1.0000   1.0000   1.0000   1.0000   1.0000   1.0000   1.0000
     1.0000   1.0000   1.0000   1.0000   1.0000   1.0000   1.0000   1.0000
     1.0000   1.0000   1.0000   1.0000   1.0000   1.0000   1.0000   1.0000
     1.0000   1.0000   0.0000   0.0000   0.0000   0.0000   0.0000

          k = 0.0833 0.3368-0.3100 (  2270 PWs)   bands (ev):

  -117.0800-117.0800 -71.2726 -71.2726 -71.2695 -71.2695 -71.2692 -71.2692
   -10.1808 -10.1808   1.0661   1.0661   1.3882   1.3882   1.4464   1.4464
     1.9839   1.9839   2.0087   2.0087   3.5909   3.5909   5.1501   5.1501
     5.3424   5.3424  10.9271  10.9271  14.6882  14.6882  16.8181

     occupation numbers 
     1.0000   1.0000   1.0000   1.0000   1.0000   1.0000   1.0000   1.0000
     1.0000   1.0000   1.0000   1.0000   1.0000   1.0000   1.0000   1.0000
     1.0000   1.0000   1.0000   1.0000   1.0000   1.0000   1.0000   1.0000
     1.0000   1.0000   0.0000   0.0000   0.0000   0.0000   0.0000

          k = 0.0833 0.4330 0.0000 (  2272 PWs)   bands (ev):

  -117.0800-117.0800 -71.2729 -71.2722 -71.2699 -71.2697 -71.2694 -71.2691
   -10.2301 -10.0015   1.1112   1.3161   1.3454   1.5682   1.6642   1.7251
     1.8919   1.9570   2.0588   2.2240   2.8952   3.3889   4.0176   4.5620
     5.4677   5.6247  10.6089  13.1898  13.7279  14.1649  16.1771

     occupation numbers 
     1.0000   1.0000   1.0000   1.0000   1.0000   1.0000   1.0000   1.0000
     1.0000   1.0000   1.0000   1.0000   1.0000   1.0000   1.0000   1.0000
     1.0000   1.0000   1.0000   1.0000   1.0000   1.0000   1.0000   1.0000
     1.0000   1.0000   0.0000   0.0000   0.0000   0.0000   0.0000

          k = 0.0833 0.4330 0.0775 (  2272 PWs)   bands (ev):

  -117.0800-117.0800 -71.2728 -71.2723 -71.2699 -71.2697 -71.2694 -71.2691
   -10.2210 -10.0097   1.1007   1.3002   1.3432   1.5592   1.6488   1.6884
     1.8922   1.9677   2.0543   2.1989   2.9078   3.4381   4.0827   4.6059
     5.4909   5.5901  10.6359  12.9779  13.7943  14.1968  16.1786

     occupation numbers 
     1.0000   1.0000   1.0000   1.0000   1.0000   1.0000   1.0000   1.0000
     1.0000   1.0000   1.0000   1.0000   1.0000   1.0000   1.0000   1.0000
     1.0000   1.0000   1.0000   1.0000   1.0000   1.0000   1.0000   1.0000
     1.0000   1.0000   0.0000   0.0000   0.0000   0.0000   0.0000

          k = 0.0833 0.4330 0.1550 (  2277 PWs)   bands (ev):

  -117.0800-117.0800 -71.2728 -71.2723 -71.2698 -71.2697 -71.2694 -71.2692
   -10.1950 -10.0332   1.0759   1.2303   1.3660   1.5393   1.6024   1.6123
     1.9222   1.9820   2.0437   2.1493   2.9646   3.4277   4.3481   4.7341
     5.4433   5.5484  10.7474  12.5104  13.9095  14.2463  16.1871

     occupation numbers 
     1.0000   1.0000   1.0000   1.0000   1.0000   1.0000   1.0000   1.0000
     1.0000   1.0000   1.0000   1.0000   1.0000   1.0000   1.0000   1.0000
     1.0000   1.0000   1.0000   1.0000   1.0000   1.0000   1.0000   1.0000
     1.0000   1.0000   0.0000   0.0000   0.0000   0.0000   0.0000

          k = 0.0833 0.4330 0.2325 (  2278 PWs)   bands (ev):

  -117.0800-117.0800 -71.2727 -71.2725 -71.2698 -71.2697 -71.2694 -71.2693
   -10.1568 -10.0691   1.0583   1.1393   1.4103   1.5239   1.5356   1.5613
     1.9679   1.9944   2.0343   2.0973   3.0634   3.3200   4.7243   4.9394
     5.2734   5.4610  11.0025  11.9547  14.0369  14.2414  16.3125

     occupation numbers 
     1.0000   1.0000   1.0000   1.0000   1.0000   1.0000   1.0000   1.0000
     1.0000   1.0000   1.0000   1.0000   1.0000   1.0000   1.0000   1.0000
     1.0000   1.0000   1.0000   1.0000   1.0000   1.0000   1.0000   1.0000
     1.0000   1.0000   0.0000   0.0000   0.0000   0.0000   0.0000

          k = 0.0833 0.4330-0.3100 (  2260 PWs)   bands (ev):

  -117.0800-117.0800 -71.2725 -71.2725 -71.2697 -71.2697 -71.2693 -71.2693
   -10.1124 -10.1124   1.0753   1.0753   1.4691   1.4691   1.5315   1.5315
     1.9967   1.9967   2.0503   2.0503   3.1876   3.1876   5.0252   5.0252
     5.2392   5.2392  11.4213  11.4213  14.1598  14.1598  16.6469

     occupation numbers 
     1.0000   1.0000   1.0000   1.0000   1.0000   1.0000   1.0000   1.0000
     1.0000   1.0000   1.0000   1.0000   1.0000   1.0000   1.0000   1.0000
     1.0000   1.0000   1.0000   1.0000   1.0000   1.0000   1.0000   1.0000
     1.0000   1.0000   0.0000   0.0000   0.0000   0.0000   0.0000

          k = 0.0833 0.5292 0.0000 (  2276 PWs)   bands (ev):

  -117.0800-117.0800 -71.2728 -71.2723 -71.2700 -71.2698 -71.2695 -71.2692
   -10.1546  -9.9994   1.1259   1.3396   1.4191   1.6553   1.6803   1.7503
     1.9345   1.9873   2.0718   2.1580   2.7708   3.2599   3.9392   4.4348
     5.2334   5.5313  11.3244  13.1384  13.4822  13.7817  16.0611

     occupation numbers 
     1.0000   1.0000   1.0000   1.0000   1.0000   1.0000   1.0000   1.0000
     1.0000   1.0000   1.0000   1.0000   1.0000   1.0000   1.0000   1.0000
     1.0000   1.0000   1.0000   1.0000   1.0000   1.0000   1.0000   1.0000
     1.0000   1.0000   0.0000   0.0000   0.0000   0.0000   0.0000

          k = 0.0833 0.5292 0.0775 (  2277 PWs)   bands (ev):

  -117.0800-117.0800 -71.2728 -71.2724 -71.2700 -71.2698 -71.2695 -71.2692
   -10.1481 -10.0046   1.1154   1.3461   1.3745   1.6456   1.6711   1.7293
     1.9504   1.9911   2.0697   2.1555   2.7520   3.2246   4.0637   4.4920
     5.2799   5.4929  11.3081  12.9714  13.5690  13.7970  16.0186

     occupation numbers 
     1.0000   1.0000   1.0000   1.0000   1.0000   1.0000   1.0000   1.0000
     1.0000   1.0000   1.0000   1.0000   1.0000   1.0000   1.0000   1.0000
     1.0000   1.0000   1.0000   1.0000   1.0000   1.0000   1.0000   1.0000
     1.0000   1.0000   0.0000   0.0000   0.0000   0.0000   0.0000

          k = 0.0833 0.5292 0.1550 (  2273 PWs)   bands (ev):

  -117.0800-117.0800 -71.2727 -71.2724 -71.2699 -71.2698 -71.2695 -71.2692
   -10.1297 -10.0198   1.0899   1.2608   1.3805   1.6277   1.6465   1.6760
     1.9795   2.0000   2.0693   2.1460   2.7461   3.1231   4.3560   4.6652
     5.3087   5.4286  11.3109  12.6142  13.6848  13.8279  15.9921

     occupation numbers 
     1.0000   1.0000   1.0000   1.0000   1.0000   1.0000   1.0000   1.0000
     1.0000   1.0000   1.0000   1.0000   1.0000   1.0000   1.0000   1.0000
     1.0000   1.0000   1.0000   1.0000   1.0000   1.0000   1.0000   1.0000
     1.0000   1.0000   0.0000   0.0000   0.0000   0.0000   0.0000

          k = 0.0833 0.5292 0.2325 (  2270 PWs)   bands (ev):

  -117.0800-117.0800 -71.2726 -71.2725 -71.2699 -71.2698 -71.2694 -71.2693
   -10.1029 -10.0434   1.0707   1.1524   1.4320   1.5818   1.6189   1.6397
     1.9972   2.0076   2.0822   2.1287   2.7915   2.9968   4.6576   4.9459
     5.1502   5.4001  11.4358  12.1677  13.7678  13.8414  16.1462

     occupation numbers 
     1.0000   1.0000   1.0000   1.0000   1.0000   1.0000   1.0000   1.0000
     1.0000   1.0000   1.0000   1.0000   1.0000   1.0000   1.0000   1.0000
     1.0000   1.0000   1.0000   1.0000   1.0000   1.0000   1.0000   1.0000
     1.0000   1.0000   0.0000   0.0000   0.0000   0.0000   0.0000

          k = 0.0833 0.5292-0.3100 (  2276 PWs)   bands (ev):

  -117.0800-117.0800 -71.2726 -71.2726 -71.2699 -71.2699 -71.2693 -71.2693
   -10.0725 -10.0725   1.0859   1.0859   1.5022   1.5022   1.6228   1.6228
     2.0057   2.0057   2.1057   2.1057   2.8802   2.8802   4.9177   4.9177
     5.2370   5.2370  11.7371  11.7371  13.8201  13.8201  16.5273

     occupation numbers 
     1.0000   1.0000   1.0000   1.0000   1.0000   1.0000   1.0000   1.0000
     1.0000   1.0000   1.0000   1.0000   1.0000   1.0000   1.0000   1.0000
     1.0000   1.0000   1.0000   1.0000   1.0000   1.0000   1.0000   1.0000
     1.0000   1.0000   0.0000   0.0000   0.0000   0.0000   0.0000

          k = 0.1667 0.2887 0.0000 (  2269 PWs)   bands (ev):

  -117.0800-117.0800 -71.2730 -71.2721 -71.2696 -71.2695 -71.2693 -71.2691
   -10.3572 -10.0278   1.1350   1.2232   1.3302   1.4026   1.5592   1.7827
     1.8240   1.9110   2.0478   2.2168   2.7809   4.1294   4.1561   4.8696
     5.7348   5.7848   9.6329  12.7436  14.1434  15.1050  16.4682

     occupation numbers 
     1.0000   1.0000   1.0000   1.0000   1.0000   1.0000   1.0000   1.0000
     1.0000   1.0000   1.0000   1.0000   1.0000   1.0000   1.0000   1.0000
     1.0000   1.0000   1.0000   1.0000   1.0000   1.0000   1.0000   1.0000
     1.0000   1.0000   0.0000   0.0000   0.0000   0.0000   0.0000

          k = 0.1667 0.2887 0.0775 (  2271 PWs)   bands (ev):

  -117.0800-117.0800 -71.2730 -71.2721 -71.2696 -71.2695 -71.2693 -71.2691
   -10.3445 -10.0401   1.1230   1.2210   1.3265   1.3939   1.5477   1.6890
     1.8415   1.9258   2.0429   2.1695   2.9373   4.1002   4.2358   4.8780
     5.6971   5.7835   9.7091  12.5700  14.1741  15.1225  16.6015

     occupation numbers 
     1.0000   1.0000   1.0000   1.0000   1.0000   1.0000   1.0000   1.0000
     1.0000   1.0000   1.0000   1.0000   1.0000   1.0000   1.0000   1.0000
     1.0000   1.0000   1.0000   1.0000   1.0000   1.0000   1.0000   1.0000
     1.0000   1.0000   0.0000   0.0000   0.0000   0.0000   0.0000

          k = 0.1667 0.2887 0.1550 (  2265 PWs)   bands (ev):

  -117.0800-117.0800 -71.2729 -71.2723 -71.2696 -71.2694 -71.2693 -71.2691
   -10.3085 -10.0754   1.0944   1.2011   1.3238   1.3738   1.5165   1.5341
     1.8858   1.9447   2.0297   2.1111   3.2159   4.0068   4.4736   4.9343
     5.5908   5.7296   9.9480  12.1142  14.3071  15.1482  16.7923

     occupation numbers 
     1.0000   1.0000   1.0000   1.0000   1.0000   1.0000   1.0000   1.0000
     1.0000   1.0000   1.0000   1.0000   1.0000   1.0000   1.0000   1.0000
     1.0000   1.0000   1.0000   1.0000   1.0000   1.0000   1.0000   1.0000
     1.0000   1.0000   0.0000   0.0000   0.0000   0.0000   0.0000

          k = 0.1667 0.2887 0.2325 (  2279 PWs)   bands (ev):

  -117.0800-117.0800 -71.2727 -71.2724 -71.2696 -71.2695 -71.2693 -71.2692
   -10.2547 -10.1285   1.0728   1.1421   1.3317   1.3619   1.4474   1.4752
     1.9417   1.9644   2.0117   2.0595   3.4671   3.8586   4.8298   5.0581
     5.4359   5.5525  10.3559  11.5173  14.5569  15.0902  16.7575

     occupation numbers 
     1.0000   1.0000   1.0000   1.0000   1.0000   1.0000   1.0000   1.0000
     1.0000   1.0000   1.0000   1.0000   1.0000   1.0000   1.0000   1.0000
     1.0000   1.0000   1.0000   1.0000   1.0000   1.0000   1.0000   1.0000
     1.0000   1.0000   0.0000   0.0000   0.0000   0.0000   0.0000

          k = 0.1667 0.2887-0.3100 (  2288 PWs)   bands (ev):

  -117.0800-117.0800 -71.2726 -71.2726 -71.2696 -71.2696 -71.2693 -71.2693
   -10.1915 -10.1915   1.0861   1.0861   1.3490   1.3490   1.4406   1.4406
     1.9811   1.9811   2.0093   2.0093   3.6771   3.6771   5.1616   5.1616
     5.3082   5.3082  10.9013  10.9013  14.8630  14.8630  16.6585

     occupation numbers 
     1.0000   1.0000   1.0000   1.0000   1.0000   1.0000   1.0000   1.0000
     1.0000   1.0000   1.0000   1.0000   1.0000   1.0000   1.0000   1.0000
     1.0000   1.0000   1.0000   1.0000   1.0000   1.0000   1.0000   1.0000
     1.0000   1.0000   0.0000   0.0000   0.0000   0.0000   0.0000

          k = 0.1667 0.3849 0.0000 (  2280 PWs)   bands (ev):

  -117.0800-117.0800 -71.2729 -71.2722 -71.2698 -71.2697 -71.2694 -71.2692
   -10.2497 -10.0034   1.1735   1.2577   1.3815   1.4899   1.6586   1.7784
     1.8391   1.9323   2.0590   2.2367   2.9237   3.6293   4.0054   4.4292
     5.4925   5.5487  10.5297  13.1475  14.1942  14.4661  16.2521

     occupation numbers 
     1.0000   1.0000   1.0000   1.0000   1.0000   1.0000   1.0000   1.0000
     1.0000   1.0000   1.0000   1.0000   1.0000   1.0000   1.0000   1.0000
     1.0000   1.0000   1.0000   1.0000   1.0000   1.0000   1.0000   1.0000
     1.0000   1.0000   0.0000   0.0000   0.0000   0.0000   0.0000

          k = 0.1667 0.3849 0.0775 (  2275 PWs)   bands (ev):

  -117.0800-117.0800 -71.2729 -71.2722 -71.2698 -71.2697 -71.2694 -71.2692
   -10.2399 -10.0123   1.1650   1.2485   1.3766   1.4823   1.6431   1.7096
     1.8450   1.9553   2.0552   2.2083   2.9799   3.6385   4.1001   4.4525
     5.4498   5.5714  10.5748  13.0049  14.1414  14.5057  16.3196

     occupation numbers 
     1.0000   1.0000   1.0000   1.0000   1.0000   1.0000   1.0000   1.0000
     1.0000   1.0000   1.0000   1.0000   1.0000   1.0000   1.0000   1.0000
     1.0000   1.0000   1.0000   1.0000   1.0000   1.0000   1.0000   1.0000
     1.0000   1.0000   0.0000   0.0000   0.0000   0.0000   0.0000

          k = 0.1667 0.3849 0.1550 (  2275 PWs)   bands (ev):

  -117.0800-117.0800 -71.2728 -71.2724 -71.2697 -71.2697 -71.2694 -71.2693
   -10.2122 -10.0379   1.1376   1.2207   1.3747   1.4645   1.5765   1.6009
     1.8929   1.9770   2.0466   2.1562   3.0926   3.5928   4.3869   4.5559
     5.3258   5.5860  10.7302  12.5928  14.1500  14.5562  16.2764

     occupation numbers 
     1.0000   1.0000   1.0000   1.0000   1.0000   1.0000   1.0000   1.0000
     1.0000   1.0000   1.0000   1.0000   1.0000   1.0000   1.0000   1.0000
     1.0000   1.0000   1.0000   1.0000   1.0000   1.0000   1.0000   1.0000
     1.0000   1.0000   0.0000   0.0000   0.0000   0.0000   0.0000

          k = 0.1667 0.3849 0.2325 (  2263 PWs)   bands (ev):

  -117.0800-117.0800 -71.2727 -71.2724 -71.2697 -71.2696 -71.2694 -71.2693
   -10.1711 -10.0768   1.1113   1.1668   1.3917   1.4487   1.4969   1.5445
     1.9510   1.9896   2.0401   2.1022   3.2185   3.4830   4.6690   4.8309
     5.1541   5.4913  11.0323  12.0386  14.2759  14.5509  16.1556

     occupation numbers 
     1.0000   1.0000   1.0000   1.0000   1.0000   1.0000   1.0000   1.0000
     1.0000   1.0000   1.0000   1.0000   1.0000   1.0000   1.0000   1.0000
     1.0000   1.0000   1.0000   1.0000   1.0000   1.0000   1.0000   1.0000
     1.0000   1.0000   0.0000   0.0000   0.0000   0.0000   0.0000

          k = 0.1667 0.3849-0.3100 (  2272 PWs)   bands (ev):

  -117.0800-117.0800 -71.2726 -71.2726 -71.2696 -71.2696 -71.2693 -71.2693
   -10.1235 -10.1235   1.1185   1.1185   1.4233   1.4233   1.4971   1.4971
     1.9888   1.9888   2.0548   2.0548   3.3510   3.3510   4.8814   4.8814
     5.2502   5.2502  11.4857  11.4857  14.4425  14.4425  16.2031

     occupation numbers 
     1.0000   1.0000   1.0000   1.0000   1.0000   1.0000   1.0000   1.0000
[...]
     5.2105   5.2865  11.4259  13.3452  14.0921  14.2287  16.4365

     occupation numbers 
     1.0000   1.0000   1.0000   1.0000   1.0000   1.0000   1.0000   1.0000
     1.0000   1.0000   1.0000   1.0000   1.0000   1.0000   1.0000   1.0000
     1.0000   1.0000   1.0000   1.0000   1.0000   1.0000   1.0000   1.0000
     1.0000   1.0000   0.0000   0.0000   0.0000   0.0000   0.0000

          k = 0.2500 0.4330 0.0775 (  2280 PWs)   bands (ev):

  -117.0800-117.0800 -71.2728 -71.2724 -71.2698 -71.2698 -71.2695 -71.2693
   -10.1523 -10.0024   1.1973   1.3177   1.4987   1.5101   1.7110   1.7565
     1.8468   1.9590   2.0774   2.2413   2.9212   3.3670   3.9492   4.2324
     5.1588   5.3356  11.4544  13.2742  14.0545  14.2402  16.1511

     occupation numbers 
     1.0000   1.0000   1.0000   1.0000   1.0000   1.0000   1.0000   1.0000
     1.0000   1.0000   1.0000   1.0000   1.0000   1.0000   1.0000   1.0000
     1.0000   1.0000   1.0000   1.0000   1.0000   1.0000   1.0000   1.0000
     1.0000   1.0000   0.0000   0.0000   0.0000   0.0000   0.0000

          k = 0.2500 0.4330 0.1550 (  2268 PWs)   bands (ev):

  -117.0800-117.0800 -71.2727 -71.2724 -71.2698 -71.2697 -71.2695 -71.2693
   -10.1332 -10.0184   1.2104   1.2567   1.4631   1.4888   1.6493   1.6539
     1.9008   1.9846   2.0815   2.2122   2.9559   3.3138   4.0528   4.5503
     5.0204   5.4212  11.5584  13.0131  14.0386  14.2669  15.7726

     occupation numbers 
     1.0000   1.0000   1.0000   1.0000   1.0000   1.0000   1.0000   1.0000
     1.0000   1.0000   1.0000   1.0000   1.0000   1.0000   1.0000   1.0000
     1.0000   1.0000   1.0000   1.0000   1.0000   1.0000   1.0000   1.0000
     1.0000   1.0000   0.0000   0.0000   0.0000   0.0000   0.0000

          k = 0.2500 0.4330 0.2325 (  2267 PWs)   bands (ev):

  -117.0800-117.0800 -71.2727 -71.2724 -71.2697 -71.2697 -71.2695 -71.2693
   -10.1053 -10.0431   1.2033   1.2063   1.4260   1.4782   1.5896   1.5910
     1.9500   1.9899   2.0983   2.1723   3.0245   3.2199   4.2506   4.7219
     5.0053   5.4265  11.7790  12.5868  14.1191  14.2798  15.5108

     occupation numbers 
     1.0000   1.0000   1.0000   1.0000   1.0000   1.0000   1.0000   1.0000
     1.0000   1.0000   1.0000   1.0000   1.0000   1.0000   1.0000   1.0000
     1.0000   1.0000   1.0000   1.0000   1.0000   1.0000   1.0000   1.0000
     1.0000   1.0000   0.0000   0.0000   0.0000   0.0000   0.0000

          k = 0.2500 0.4330-0.3100 (  2270 PWs)   bands (ev):

  -117.0800-117.0800 -71.2726 -71.2726 -71.2697 -71.2697 -71.2694 -71.2694
   -10.0736 -10.0736   1.1885   1.1885   1.4472   1.4472   1.5679   1.5679
     1.9794   1.9794   2.1309   2.1309   3.1168   3.1168   4.4977   4.4977
     5.2772   5.2772  12.1366  12.1366  14.2296  14.2296  15.4502

     occupation numbers 
     1.0000   1.0000   1.0000   1.0000   1.0000   1.0000   1.0000   1.0000
     1.0000   1.0000   1.0000   1.0000   1.0000   1.0000   1.0000   1.0000
     1.0000   1.0000   1.0000   1.0000   1.0000   1.0000   1.0000   1.0000
     1.0000   1.0000   0.0000   0.0000   0.0000   0.0000   0.0000

          k = 0.2500 0.5292 0.0000 (  2276 PWs)   bands (ev):

  -117.0800-117.0800 -71.2727 -71.2724 -71.2699 -71.2698 -71.2696 -71.2694
   -10.0909 -10.0088   1.1777   1.4057   1.5410   1.7113   1.7714   1.8113
     1.8865   1.9270   2.0957   2.1775   2.9144   3.2070   3.5060   4.3978
     4.9640   5.0717  12.2260  13.3018  13.8602  14.0096  16.1722

     occupation numbers 
     1.0000   1.0000   1.0000   1.0000   1.0000   1.0000   1.0000   1.0000
     1.0000   1.0000   1.0000   1.0000   1.0000   1.0000   1.0000   1.0000
     1.0000   1.0000   1.0000   1.0000   1.0000   1.0000   1.0000   1.0000
     1.0000   1.0000   0.0000   0.0000   0.0000   0.0000   0.0000

          k = 0.2500 0.5292 0.0775 (  2274 PWs)   bands (ev):

  -117.0800-117.0800 -71.2727 -71.2724 -71.2699 -71.2697 -71.2696 -71.2694
   -10.0870 -10.0111   1.1880   1.3857   1.5062   1.6803   1.7456   1.7867
     1.8906   1.9466   2.1054   2.1921   2.8980   3.1855   3.5525   4.5119
     4.9467   5.1044  12.2421  13.2901  13.8629  14.0137  15.8217

     occupation numbers 
     1.0000   1.0000   1.0000   1.0000   1.0000   1.0000   1.0000   1.0000
     1.0000   1.0000   1.0000   1.0000   1.0000   1.0000   1.0000   1.0000
     1.0000   1.0000   1.0000   1.0000   1.0000   1.0000   1.0000   1.0000
     1.0000   1.0000   0.0000   0.0000   0.0000   0.0000   0.0000

          k = 0.2500 0.5292 0.1550 (  2271 PWs)   bands (ev):

  -117.0800-117.0800 -71.2726 -71.2725 -71.2699 -71.2697 -71.2696 -71.2694
   -10.0763 -10.0182   1.2129   1.3388   1.4207   1.6200   1.6978   1.7333
     1.9153   1.9578   2.1347   2.2153   2.8791   3.1129   3.7132   4.7296
     4.8530   5.2422  12.3072  13.2224  13.8757  14.0216  15.2562

     occupation numbers 
     1.0000   1.0000   1.0000   1.0000   1.0000   1.0000   1.0000   1.0000
     1.0000   1.0000   1.0000   1.0000   1.0000   1.0000   1.0000   1.0000
     1.0000   1.0000   1.0000   1.0000   1.0000   1.0000   1.0000   1.0000
     1.0000   1.0000   0.0000   0.0000   0.0000   0.0000   0.0000

          k = 0.2500 0.5292 0.2325 (  2272 PWs)   bands (ev):

  -117.0800-117.0800 -71.2726 -71.2725 -71.2698 -71.2697 -71.2696 -71.2694
   -10.0611 -10.0296   1.2273   1.2847   1.3775   1.5281   1.6763   1.6967
     1.9342   1.9561   2.1727   2.2210   2.8930   3.0217   3.9624   4.5350
     5.1032   5.3435  12.4609  13.0237  13.9153  14.0154  14.9162

     occupation numbers 
     1.0000   1.0000   1.0000   1.0000   1.0000   1.0000   1.0000   1.0000
     1.0000   1.0000   1.0000   1.0000   1.0000   1.0000   1.0000   1.0000
     1.0000   1.0000   1.0000   1.0000   1.0000   1.0000   1.0000   1.0000
     1.0000   1.0000   0.0000   0.0000   0.0000   0.0000   0.0000

          k = 0.2500 0.5292-0.3100 (  2268 PWs)   bands (ev):

  -117.0800-117.0800 -71.2726 -71.2726 -71.2698 -71.2698 -71.2695 -71.2695
   -10.0446 -10.0446   1.2380   1.2380   1.4343   1.4343   1.6782   1.6782
     1.9474   1.9474   2.2047   2.2047   2.9436   2.9436   4.2511   4.2511
     5.3028   5.3028  12.7225  12.7225  13.9747  13.9747  14.9364

     occupation numbers 
     1.0000   1.0000   1.0000   1.0000   1.0000   1.0000   1.0000   1.0000
     1.0000   1.0000   1.0000   1.0000   1.0000   1.0000   1.0000   1.0000
     1.0000   1.0000   1.0000   1.0000   1.0000   1.0000   1.0000   1.0000
     1.0000   1.0000   0.0000   0.0000   0.0000   0.0000   0.0000

          k = 0.3333 0.5774 0.0000 (  2283 PWs)   bands (ev):

  -117.0800-117.0800 -71.2726 -71.2726 -71.2699 -71.2697 -71.2697 -71.2694
   -10.0397 -10.0397   1.1752   1.4838   1.4838   1.7799   1.8480   1.8480
     1.8902   1.9369   2.1089   2.1089   3.0943   3.0943   3.1848   4.7171
     4.7171   4.8926  12.9214  12.9214  13.8802  14.0088  16.1829

     occupation numbers 
     1.0000   1.0000   1.0000   1.0000   1.0000   1.0000   1.0000   1.0000
     1.0000   1.0000   1.0000   1.0000   1.0000   1.0000   1.0000   1.0000
     1.0000   1.0000   1.0000   1.0000   1.0000   1.0000   1.0000   1.0000
     1.0000   1.0000   0.0000   0.0000   0.0000   0.0000   0.0000

          k = 0.3333 0.5774 0.0775 (  2256 PWs)   bands (ev):

  -117.0800-117.0800 -71.2725 -71.2725 -71.2698 -71.2697 -71.2697 -71.2694
   -10.0388 -10.0388   1.1895   1.4565   1.4565   1.7413   1.8214   1.8214
     1.8864   1.9345   2.1381   2.1381   3.0616   3.0616   3.2650   4.8120
     4.8120   4.8293  12.9457  12.9457  13.8921  14.0081  15.8298

     occupation numbers 
     1.0000   1.0000   1.0000   1.0000   1.0000   1.0000   1.0000   1.0000
     1.0000   1.0000   1.0000   1.0000   1.0000   1.0000   1.0000   1.0000
     1.0000   1.0000   1.0000   1.0000   1.0000   1.0000   1.0000   1.0000
     1.0000   1.0000   0.0000   0.0000   0.0000   0.0000   0.0000

          k = 0.3333 0.5774 0.1550 (  2283 PWs)   bands (ev):

  -117.0800-117.0800 -71.2726 -71.2726 -71.2698 -71.2697 -71.2697 -71.2695
   -10.0369 -10.0369   1.2322   1.3879   1.3879   1.6399   1.7800   1.7800
     1.8873   1.9278   2.1895   2.1895   2.9962   2.9962   3.4754   4.6512
     5.0285   5.0285  13.0209  13.0209  13.9214  14.0051  15.1695

     occupation numbers 
     1.0000   1.0000   1.0000   1.0000   1.0000   1.0000   1.0000   1.0000
     1.0000   1.0000   1.0000   1.0000   1.0000   1.0000   1.0000   1.0000
     1.0000   1.0000   1.0000   1.0000   1.0000   1.0000   1.0000   1.0000
     1.0000   1.0000   0.0000   0.0000   0.0000   0.0000   0.0000

          k = 0.3333 0.5774 0.2325 (  2274 PWs)   bands (ev):

  -117.0800-117.0800 -71.2726 -71.2726 -71.2697 -71.2697 -71.2697 -71.2695
   -10.0350 -10.0350   1.3028   1.3187   1.3187   1.5161   1.7545   1.7545
     1.8951   1.9178   2.2282   2.2282   2.9441   2.9441   3.7618   4.3883
     5.2333   5.2333  13.1389  13.1389  13.9543  13.9971  14.5945

     occupation numbers 
     1.0000   1.0000   1.0000   1.0000   1.0000   1.0000   1.0000   1.0000
     1.0000   1.0000   1.0000   1.0000   1.0000   1.0000   1.0000   1.0000
     1.0000   1.0000   1.0000   1.0000   1.0000   1.0000   1.0000   1.0000
     1.0000   1.0000   0.0000   0.0000   0.0000   0.0000   0.0000

          k = 0.3333 0.5774-0.3100 (  2262 PWs)   bands (ev):

  -117.0800-117.0800 -71.2725 -71.2725 -71.2697 -71.2697 -71.2696 -71.2696
   -10.0342 -10.0342   1.2904   1.2904   1.3992   1.3992   1.7465   1.7465
     1.9062   1.9062   2.2421   2.2421   2.9253   2.9253   4.0790   4.0790
     5.3160   5.3160  13.2156  13.2156  13.9806  13.9806  14.3488

     occupation numbers 
     1.0000   1.0000   1.0000   1.0000   1.0000   1.0000   1.0000   1.0000
     1.0000   1.0000   1.0000   1.0000   1.0000   1.0000   1.0000   1.0000
     1.0000   1.0000   1.0000   1.0000   1.0000   1.0000   1.0000   1.0000
     1.0000   1.0000   0.0000   0.0000   0.0000   0.0000   0.0000

     the Fermi energy is     6.7678 ev

     WARNING: integrated charge=    52.00084817, expected=    52.00000000

!    total energy              =   -1006.54800754 Ry
     estimated scf accuracy    <       0.00000001 Ry
     smearing contrib. (-TS)   =       0.00000766 Ry
     internal energy E=F+TS    =   -1006.54801520 Ry

     The total energy is F=E-TS. E is the sum of the following terms:
     one-electron contribution =    -852.95697253 Ry
     hartree contribution      =     444.05662308 Ry
     xc contribution           =     -99.19979302 Ry
     ewald contribution        =    -479.40614198 Ry
     one-center paw contrib.   =     -19.04173076 Ry
      -> PAW hartree energy AE =      50.95235828 Ry
      -> PAW hartree energy PS =     -50.71543038 Ry
      -> PAW xc energy AE      =     -33.12693061 Ry
      -> PAW xc energy PS      =      13.84827195 Ry
      -> total E_H with PAW    =     444.29355098 Ry
      -> total E_XC with PAW   =    -118.47845168 Ry

     convergence has been achieved in   9 iterations

     Forces acting on atoms (cartesian axes, Ry/au):

     atom    1 type  2   force =     0.00000000   -0.00000000   -0.00013716
     atom    2 type  2   force =     0.00000000    0.00000000   -0.00013716
     atom    3 type  1   force =    -0.00000000   -0.00000000    0.00013716
     atom    4 type  1   force =     0.00000000    0.00000000    0.00013716
     The non-local contrib.  to forces
     atom    1 type  2   force =     0.00000000    0.00000000   -0.01116640
     atom    2 type  2   force =     0.00000000   -0.00000000   -0.01116640
     atom    3 type  1   force =     0.00000000   -0.00000000    0.00514866
     atom    4 type  1   force =    -0.00000000   -0.00000000    0.00514866
     The ionic contribution  to forces
     atom    1 type  2   force =    -0.00000055    0.00000032    0.07457119
     atom    2 type  2   force =     0.00000055   -0.00000032    0.07457119
     atom    3 type  1   force =    -0.00000047    0.00000027   -0.07457119
     atom    4 type  1   force =     0.00000047   -0.00000027   -0.07457119
     The local contribution  to forces
     atom    1 type  2   force =    -0.00001032    0.00000596   -0.06352880
     atom    2 type  2   force =     0.00003096   -0.00001788   -0.06352940
     atom    3 type  1   force =    -0.00000061    0.00000035    0.06965348
     atom    4 type  1   force =     0.00000184   -0.00000106    0.06965442
     The core correction contribution to forces
     atom    1 type  2   force =     0.00000000    0.00000000    0.00000000
     atom    2 type  2   force =     0.00000000    0.00000000    0.00000000
     atom    3 type  1   force =    -0.00000000    0.00000000   -0.00007433
     atom    4 type  1   force =     0.00000000   -0.00000000   -0.00007433
     The Hubbard contrib.    to forces
     atom    1 type  2   force =     0.00000000    0.00000000    0.00000000
     atom    2 type  2   force =     0.00000000    0.00000000    0.00000000
     atom    3 type  1   force =     0.00000000    0.00000000    0.00000000
     atom    4 type  1   force =     0.00000000    0.00000000    0.00000000
     The SCF correction term to forces
     atom    1 type  2   force =    -0.00000000    0.00000000   -0.00001840
     atom    2 type  2   force =     0.00000001   -0.00000000   -0.00001840
     atom    3 type  1   force =    -0.00000000    0.00000000   -0.00002549
     atom    4 type  1   force =     0.00000000   -0.00000000   -0.00002549

     Total force =     0.000274     Total SCF correction =     0.000044
     SCF correction compared to forces is large: reduce conv_thr to get better values


     Computing stress (Cartesian axis) and pressure

          total   stress  (Ry/bohr**3)                   (kbar)     P=     -131.84
  -0.00090123   0.00000000   0.00000000         -132.57        0.00        0.00
   0.00000000  -0.00090123   0.00000000            0.00     -132.57        0.00
   0.00000000   0.00000000  -0.00088621            0.00        0.00     -130.37

     kinetic stress (kbar)  29213.02      0.00      0.00
                                0.00  29213.02     -0.00
                                0.00     -0.00  29235.10

     local   stress (kbar) -10796.56     -0.00     -0.00
                               -0.00 -10796.56      0.00
                               -0.00      0.00 -14123.63

     nonloc. stress (kbar)   -665.79      0.00      0.00
                                0.00   -665.79      0.00
                                0.00      0.00   -674.64

     hartree stress (kbar)  56627.11     -0.00      0.00
                               -0.00  56627.11     -0.00
                                0.00     -0.00  58220.32

     exc-cor stress (kbar) -11900.24      0.00     -0.00
                                0.00 -11900.24      0.00
                               -0.00      0.00 -11900.38

     corecor stress (kbar)   -327.47     -0.00      0.00
                               -0.00   -327.47     -0.00
                                0.00     -0.00   -327.50

     ewald   stress (kbar) -62282.64      0.00     -0.00
                                0.00 -62282.64     -0.00
                               -0.00     -0.00 -60559.65

     hubbard stress (kbar)      0.00      0.00      0.00
                                0.00      0.00      0.00
                                0.00      0.00      0.00

     DFT-D   stress (kbar)      0.00      0.00      0.00
                                0.00      0.00      0.00
                                0.00      0.00      0.00

     XDM     stress (kbar)      0.00      0.00      0.00
                                0.00      0.00      0.00
                                0.00      0.00      0.00

     dft-nl  stress (kbar)      0.00      0.00      0.00
                                0.00      0.00      0.00
                                0.00      0.00      0.00

     TS-vdW  stress (kbar)      0.00      0.00      0.00
                                0.00      0.00      0.00
                                0.00      0.00      0.00

     MDB     stress (kbar)      0.00      0.00      0.00
                                0.00      0.00      0.00
                                0.00      0.00      0.00

     3D-RISM stress (kbar)      0.00      0.00      0.00
                                0.00      0.00      0.00
                                0.00      0.00      0.00


     Writing all to output data dir ./temp_hexag/aiida.save/ :
     XML data file, charge density, pseudopotentials, collected wavefunctions

     init_run     :    170.87s CPU      8.09s WALL (       1 calls)
     electrons    :   4198.76s CPU    201.41s WALL (       1 calls)
     forces       :     68.31s CPU      3.02s WALL (       1 calls)
     stress       :     71.58s CPU      3.73s WALL (       1 calls)

     Called by init_run:
     wfcinit      :    166.21s CPU      7.61s WALL (       1 calls)
     wfcinit:atom :      1.17s CPU      0.10s WALL (      95 calls)
     wfcinit:wfcr :    161.24s CPU      7.14s WALL (      95 calls)
     potinit      :      1.72s CPU      0.10s WALL (       1 calls)
     hinit0       :      1.12s CPU      0.23s WALL (       1 calls)

     Called by electrons:
     c_bands      :   3544.59s CPU    172.07s WALL (       9 calls)
     sum_band     :    630.59s CPU     27.45s WALL (       9 calls)
     v_of_rho     :      6.04s CPU      0.27s WALL (      10 calls)
     v_h          :      0.68s CPU      0.03s WALL (      10 calls)
     v_xc         :      6.73s CPU      0.30s WALL (      12 calls)
     newd         :     11.35s CPU      1.27s WALL (      10 calls)
     PAW_pot      :      7.08s CPU      0.30s WALL (      10 calls)
     mix_rho      :      1.08s CPU      0.06s WALL (       9 calls)

     Called by c_bands:
     init_us_2    :     30.14s CPU      1.61s WALL (    1995 calls)
     cegterg      :   3484.26s CPU    168.86s WALL (     855 calls)

     Called by sum_band:
     sum_band:wei :      0.53s CPU      0.02s WALL (       9 calls)
     sum_band:loo :    625.53s CPU     26.21s WALL (       9 calls)
     sum_band:buf :      2.36s CPU      0.11s WALL (     855 calls)
     sum_band:ini :     12.64s CPU      0.55s WALL (     855 calls)
     sum_band:cal :    113.87s CPU      4.47s WALL (     855 calls)
     sum_band:bec :     20.55s CPU      1.02s WALL (     855 calls)
     addusdens    :      4.12s CPU      1.13s WALL (       9 calls)
                                        0.00s GPU  (       9 calls)
     addusd:skk   :      0.00s CPU      0.00s WALL (      18 calls)
                                        0.00s GPU  (      18 calls)

     Called by *egterg:
     cdiaghg      :     30.69s CPU      2.41s WALL (    3157 calls)
     cegterg:over :    240.70s CPU     11.18s WALL (    2302 calls)
     cegterg:upda :    100.84s CPU      8.23s WALL (    2302 calls)
     cegterg:last :    111.93s CPU     14.10s WALL (    1710 calls)
     h_psi        :   2747.90s CPU    119.27s WALL (    3252 calls)
     s_psi        :    222.76s CPU     11.65s WALL (    3252 calls)
     g_psi        :     16.32s CPU      0.85s WALL (    2302 calls)

     Called by h_psi:
     h_psi:calbec :    276.54s CPU     10.83s WALL (    3252 calls)
     vloc_psi     :   2179.77s CPU     95.58s WALL (    3252 calls)
     add_vuspsi   :    265.66s CPU     11.40s WALL (    3252 calls)

     General routines
     calbec       :    451.21s CPU     17.75s WALL (    4582 calls)
     fft          :      6.05s CPU      0.30s WALL (     153 calls)
     ffts         :      0.02s CPU      0.01s WALL (      19 calls)
     fftw         :   1026.51s CPU     46.58s WALL (  156309 calls)
     interpolate  :      0.48s CPU      0.03s WALL (      10 calls)

     Parallel routines

     PAW routines
     PAW_pot      :      7.08s CPU      0.30s WALL (      10 calls)
     PAW_symme    :      0.00s CPU      0.00s WALL (      19 calls)

     PWSCF        :      1h15m CPU   3m38.27s WALL


   This run was terminated on:  23:21:47  11Jun2024            

=------------------------------------------------------------------------------=
   JOB DONE.
=------------------------------------------------------------------------------=
