
     Program PWSCF v.7.3.1 starts on  9Jun2024 at 16:12: 8 

     This program is part of the open-source Quantum ESPRESSO suite
     for quantum simulation of materials; please cite
         "P. Giannozzi et al., J. Phys.:Condens. Matter 21 395502 (2009);
         "P. Giannozzi et al., J. Phys.:Condens. Matter 29 465901 (2017);
         "P. Giannozzi et al., J. Chem. Phys. 152 154105 (2020);
          URL http://www.quantum-espresso.org", 
     in publications or presentations arising from this work. More details at
     http://www.quantum-espresso.org/quote

     Parallel version (MPI & OpenMP), running on      24 processor cores
     Number of MPI processes:                 1
     Threads/MPI process:                    24

     MPI processes distributed on     1 nodes
     5071 MiB available memory on the printing compute node when the environment starts

     Waiting for input...
     Reading input from standard input

     Current dimensions of program PWSCF are:
     Max number of different atomic species (ntypx) = 10
     Max number of k-points (npk) =  40000
     Max angular momentum in pseudopotentials (lmaxx) =  4
     file O.pbe-n-kjpaw_psl.0.1.UPF: wavefunction(s)  2P renormalized
     Message from routine setup:
     using ibrav=0 with symmetry is DISCOURAGED, use correct ibrav instead

     Subspace diagonalization in iterative solution of the eigenvalue problem:
     a serial algorithm will be used


     G-vector sticks info
     --------------------
     sticks:   dense  smooth     PW     G-vecs:    dense   smooth      PW
     Sum        1039     511    163                43245    15267    2599

     Using Slab Decomposition



     bravais-lattice index     =            0
     lattice parameter (alat)  =       6.1177  a.u.
     unit-cell volume          =     319.8518 (a.u.)^3
     number of atoms/cell      =            3
     number of atomic types    =            2
     number of electrons       =        46.00
     number of Kohn-Sham states=           28
     kinetic-energy cutoff     =      50.0000  Ry
     charge density cutoff     =     400.0000  Ry
     scf convergence threshold =      2.0E-08
     mixing beta               =       0.4000
     number of iterations used =            8  plain     mixing
     energy convergence thresh.=      4.0E-05
     force convergence thresh. =      1.0E-04
     press convergence thresh. =      5.0E-01
     Exchange-correlation= SLA  PW   PBE  PBE
                           (   1   4   3   4   0   0   0)
     nstep                     =           50


     celldm(1)=   6.117707  celldm(2)=   0.000000  celldm(3)=   0.000000
     celldm(4)=   0.000000  celldm(5)=   0.000000  celldm(6)=   0.000000

     crystal axes: (cart. coord. in units of alat)
               a(1) = (   1.000000   0.000000   0.000000 )  
               a(2) = (  -0.500000   0.866025   0.000000 )  
               a(3) = (   0.000000   0.000000   1.613066 )  

     reciprocal axes: (cart. coord. in units 2 pi/alat)
               b(1) = (  1.000000  0.577350 -0.000000 )  
               b(2) = (  0.000000  1.154701  0.000000 )  
               b(3) = (  0.000000 -0.000000  0.619937 )  


     PseudoPot. # 1 for O  read from file:
     ../SSSP_1.3.0_PBE_efficiency/O.pbe-n-kjpaw_psl.0.1.UPF
     MD5 check sum: 0234752ac141de4415c5fc33072bef88
     Pseudo is Projector augmented-wave + core cor, Zval =  6.0
     Generated using "atomic" code by A. Dal Corso  v.5.0.99 svn rev. 10869
     Shape of augmentation charge: BESSEL
     Using radial grid of 1095 points,  4 beta functions with: 
                l(1) =   0
                l(2) =   0
                l(3) =   1
                l(4) =   1
     Q(r) pseudized with 0 coefficients 


     PseudoPot. # 2 for Zn read from file:
     ../SSSP_1.3.0_PBE_efficiency/Zn_pbe_v1.uspp.F.UPF
     MD5 check sum: df62231357ef9e81f77b2b3087fa5675
     Pseudo is Ultrasoft, Zval = 20.0
     Generated by new atomic code, or converted to UPF format
     Using radial grid of  943 points,  6 beta functions with: 
                l(1) =   0
                l(2) =   0
                l(3) =   1
                l(4) =   1
                l(5) =   2
                l(6) =   2
     Q(r) pseudized with  8 coefficients,  rinner =    1.100   1.100   1.100
                                                       1.100   1.100

     atomic species   valence    mass     pseudopotential
     O                 6.00    15.99940     O ( 1.00)
     Zn               20.00    65.38000     Zn( 1.00)

      6 Sym. Ops. (no inversion) found


                                    s                        frac. trans.

      isym =  1     identity                                     

 cryst.   s( 1) = (     1          0          0      )
                  (     0          1          0      )
                  (     0          0          1      )

 cart.    s( 1) = (  1.0000000  0.0000000  0.0000000 )
                  (  0.0000000  1.0000000  0.0000000 )
                  (  0.0000000  0.0000000  1.0000000 )


      isym =  2     120 deg rotation - cryst. axis [0,0,1]       

 cryst.   s( 2) = (     0          1          0      )
                  (    -1         -1          0      )
                  (     0          0          1      )

 cart.    s( 2) = ( -0.5000000 -0.8660254  0.0000000 )
                  (  0.8660254 -0.5000000  0.0000000 )
                  (  0.0000000  0.0000000  1.0000000 )


      isym =  3     120 deg rotation - cryst. axis [0,0,-1]      

 cryst.   s( 3) = (    -1         -1          0      )
                  (     1          0          0      )
                  (     0          0          1      )

 cart.    s( 3) = ( -0.5000000  0.8660254  0.0000000 )
                  ( -0.8660254 -0.5000000  0.0000000 )
                  (  0.0000000  0.0000000  1.0000000 )


      isym =  4     inv. 180 deg rotation - cart. axis [1,0,0]   

 cryst.   s( 4) = (    -1          0          0      )
                  (     1          1          0      )
                  (     0          0          1      )

 cart.    s( 4) = ( -1.0000000  0.0000000  0.0000000 )
                  (  0.0000000  1.0000000  0.0000000 )
                  (  0.0000000  0.0000000  1.0000000 )


      isym =  5     inv. 180 deg rotation - cryst. axis [0,1,0]  

 cryst.   s( 5) = (     1          1          0      )
                  (     0         -1          0      )
                  (     0          0          1      )

 cart.    s( 5) = (  0.5000000  0.8660254  0.0000000 )
                  (  0.8660254 -0.5000000  0.0000000 )
                  (  0.0000000  0.0000000  1.0000000 )


      isym =  6     inv. 180 deg rotation - cryst. axis [1,1,0]  

 cryst.   s( 6) = (     0         -1          0      )
                  (    -1          0          0      )
                  (     0          0          1      )

 cart.    s( 6) = (  0.5000000 -0.8660254  0.0000000 )
                  ( -0.8660254 -0.5000000  0.0000000 )
                  (  0.0000000  0.0000000  1.0000000 )


   Cartesian axes

     site n.     atom                  positions (alat units)
         1        Zn     tau(   1) = (   0.5000000   0.2886751   0.8074875  )
         2        Zn     tau(   2) = (  -0.0000000   0.5773503   0.0009545  )
         3        O      tau(   3) = (   0.5000000   0.2886751   1.4190438  )

   Crystallographic axes

     site n.     atom                  positions (cryst. coord.)
         1        Zn     tau(   1) = (  0.6666667  0.3333333  0.5005917  )
         2        Zn     tau(   2) = (  0.3333333  0.6666667  0.0005917  )
         3        O      tau(   3) = (  0.6666667  0.3333333  0.8797183  )

     number of k points=   131  Marzari-Vanderbilt smearing, width (Ry)=  0.0147
                       cart. coord. in units 2pi/alat
        k(    1) = (   0.0000000   0.0000000   0.0000000), wk =   0.0017361
        k(    2) = (   0.0000000   0.0000000   0.0774922), wk =   0.0034722
        k(    3) = (   0.0000000   0.0000000   0.1549843), wk =   0.0034722
        k(    4) = (   0.0000000   0.0000000   0.2324765), wk =   0.0034722
        k(    5) = (   0.0000000   0.0000000  -0.3099687), wk =   0.0017361
        k(    6) = (   0.0000000   0.0962250   0.0000000), wk =   0.0104167
        k(    7) = (   0.0000000   0.0962250   0.0774922), wk =   0.0104167
        k(    8) = (   0.0000000   0.0962250   0.1549843), wk =   0.0104167
        k(    9) = (   0.0000000   0.0962250   0.2324765), wk =   0.0104167
        k(   10) = (   0.0000000   0.0962250  -0.3099687), wk =   0.0104167
        k(   11) = (   0.0000000   0.1924501   0.0000000), wk =   0.0104167
        k(   12) = (   0.0000000   0.1924501   0.0774922), wk =   0.0104167
        k(   13) = (   0.0000000   0.1924501   0.1549843), wk =   0.0104167
        k(   14) = (   0.0000000   0.1924501   0.2324765), wk =   0.0104167
        k(   15) = (   0.0000000   0.1924501  -0.3099687), wk =   0.0104167
        k(   16) = (   0.0000000   0.2886751   0.0000000), wk =   0.0104167
        k(   17) = (   0.0000000   0.2886751   0.0774922), wk =   0.0104167
        k(   18) = (   0.0000000   0.2886751   0.1549843), wk =   0.0104167
        k(   19) = (   0.0000000   0.2886751   0.2324765), wk =   0.0104167
        k(   20) = (   0.0000000   0.2886751  -0.3099687), wk =   0.0104167
        k(   21) = (   0.0000000   0.3849002   0.0000000), wk =   0.0104167
        k(   22) = (   0.0000000   0.3849002   0.0774922), wk =   0.0104167
        k(   23) = (   0.0000000   0.3849002   0.1549843), wk =   0.0104167
        k(   24) = (   0.0000000   0.3849002   0.2324765), wk =   0.0104167
        k(   25) = (   0.0000000   0.3849002  -0.3099687), wk =   0.0104167
        k(   26) = (   0.0000000   0.4811252   0.0000000), wk =   0.0104167
        k(   27) = (   0.0000000   0.4811252   0.0774922), wk =   0.0104167
        k(   28) = (   0.0000000   0.4811252   0.1549843), wk =   0.0104167
        k(   29) = (   0.0000000   0.4811252   0.2324765), wk =   0.0104167
        k(   30) = (   0.0000000   0.4811252  -0.3099687), wk =   0.0104167
        k(   31) = (   0.0000000  -0.5773503   0.0000000), wk =   0.0052083
        k(   32) = (   0.0000000  -0.5773503   0.0774922), wk =   0.0104167
        k(   33) = (   0.0000000  -0.5773503   0.1549843), wk =   0.0104167
        k(   34) = (   0.0000000  -0.5773503   0.2324765), wk =   0.0104167
        k(   35) = (   0.0000000  -0.5773503  -0.3099687), wk =   0.0052083
        k(   36) = (   0.0833333   0.1443376   0.0000000), wk =   0.0104167
        k(   37) = (   0.0833333   0.1443376   0.0774922), wk =   0.0208333
        k(   38) = (   0.0833333   0.1443376   0.1549843), wk =   0.0208333
        k(   39) = (   0.0833333   0.1443376   0.2324765), wk =   0.0208333
        k(   40) = (   0.0833333   0.1443376  -0.3099687), wk =   0.0104167
        k(   41) = (   0.0833333   0.2405626   0.0000000), wk =   0.0208333
        k(   42) = (   0.0833333   0.2405626   0.0774922), wk =   0.0208333
        k(   43) = (   0.0833333   0.2405626   0.1549843), wk =   0.0208333
        k(   44) = (   0.0833333   0.2405626   0.2324765), wk =   0.0208333
        k(   45) = (   0.0833333   0.2405626  -0.3099687), wk =   0.0208333
        k(   46) = (   0.0833333   0.3367877   0.0000000), wk =   0.0208333
        k(   47) = (   0.0833333   0.3367877   0.0774922), wk =   0.0208333
        k(   48) = (   0.0833333   0.3367877   0.1549843), wk =   0.0208333
        k(   49) = (   0.0833333   0.3367877   0.2324765), wk =   0.0208333
        k(   50) = (   0.0833333   0.3367877  -0.3099687), wk =   0.0208333
        k(   51) = (   0.0833333   0.4330127   0.0000000), wk =   0.0208333
        k(   52) = (   0.0833333   0.4330127   0.0774922), wk =   0.0208333
        k(   53) = (   0.0833333   0.4330127   0.1549843), wk =   0.0208333
        k(   54) = (   0.0833333   0.4330127   0.2324765), wk =   0.0208333
        k(   55) = (   0.0833333   0.4330127  -0.3099687), wk =   0.0208333
        k(   56) = (   0.0833333   0.5292377   0.0000000), wk =   0.0208333
        k(   57) = (   0.0833333   0.5292377   0.0774922), wk =   0.0208333
        k(   58) = (   0.0833333   0.5292377   0.1549843), wk =   0.0208333
        k(   59) = (   0.0833333   0.5292377   0.2324765), wk =   0.0208333
        k(   60) = (   0.0833333   0.5292377  -0.3099687), wk =   0.0208333
        k(   61) = (   0.1666667   0.2886751   0.0000000), wk =   0.0104167
        k(   62) = (   0.1666667   0.2886751   0.0774922), wk =   0.0208333
        k(   63) = (   0.1666667   0.2886751   0.1549843), wk =   0.0208333
        k(   64) = (   0.1666667   0.2886751   0.2324765), wk =   0.0208333
        k(   65) = (   0.1666667   0.2886751  -0.3099687), wk =   0.0104167
        k(   66) = (   0.1666667   0.3849002   0.0000000), wk =   0.0208333
        k(   67) = (   0.1666667   0.3849002   0.0774922), wk =   0.0208333
        k(   68) = (   0.1666667   0.3849002   0.1549843), wk =   0.0208333
        k(   69) = (   0.1666667   0.3849002   0.2324765), wk =   0.0208333
        k(   70) = (   0.1666667   0.3849002  -0.3099687), wk =   0.0208333
        k(   71) = (   0.1666667   0.4811252   0.0000000), wk =   0.0208333
        k(   72) = (   0.1666667   0.4811252   0.0774922), wk =   0.0208333
        k(   73) = (   0.1666667   0.4811252   0.1549843), wk =   0.0208333
        k(   74) = (   0.1666667   0.4811252   0.2324765), wk =   0.0208333
        k(   75) = (   0.1666667   0.4811252  -0.3099687), wk =   0.0208333
        k(   76) = (   0.1666667   0.5773503   0.0000000), wk =   0.0104167
        k(   77) = (   0.1666667   0.5773503   0.0774922), wk =   0.0208333
        k(   78) = (   0.1666667   0.5773503   0.1549843), wk =   0.0208333
        k(   79) = (   0.1666667   0.5773503   0.2324765), wk =   0.0208333
        k(   80) = (   0.1666667   0.5773503  -0.3099687), wk =   0.0104167
        k(   81) = (   0.2500000   0.4330127   0.0000000), wk =   0.0104167
        k(   82) = (   0.2500000   0.4330127   0.0774922), wk =   0.0208333
        k(   83) = (   0.2500000   0.4330127   0.1549843), wk =   0.0208333
        k(   84) = (   0.2500000   0.4330127   0.2324765), wk =   0.0208333
        k(   85) = (   0.2500000   0.4330127  -0.3099687), wk =   0.0104167
        k(   86) = (   0.2500000   0.5292377   0.0000000), wk =   0.0208333
        k(   87) = (   0.2500000   0.5292377   0.0774922), wk =   0.0208333
        k(   88) = (   0.2500000   0.5292377   0.1549843), wk =   0.0208333
        k(   89) = (   0.2500000   0.5292377   0.2324765), wk =   0.0208333
        k(   90) = (   0.2500000   0.5292377  -0.3099687), wk =   0.0208333
        k(   91) = (   0.3333333   0.5773503   0.0000000), wk =   0.0034722
        k(   92) = (   0.3333333   0.5773503   0.0774922), wk =   0.0069444
        k(   93) = (   0.3333333   0.5773503   0.1549843), wk =   0.0069444
        k(   94) = (   0.3333333   0.5773503   0.2324765), wk =   0.0069444
        k(   95) = (   0.3333333   0.5773503  -0.3099687), wk =   0.0034722
        k(   96) = (   0.0000000  -0.0962250   0.0774922), wk =   0.0104167
        k(   97) = (   0.0000000  -0.0962250   0.1549843), wk =   0.0104167
        k(   98) = (   0.0000000  -0.0962250   0.2324765), wk =   0.0104167
        k(   99) = (   0.0000000  -0.1924501   0.0774922), wk =   0.0104167
        k(  100) = (   0.0000000  -0.1924501   0.1549843), wk =   0.0104167
        k(  101) = (   0.0000000  -0.1924501   0.2324765), wk =   0.0104167
        k(  102) = (   0.0000000  -0.2886751   0.0774922), wk =   0.0104167
        k(  103) = (   0.0000000  -0.2886751   0.1549843), wk =   0.0104167
        k(  104) = (   0.0000000  -0.2886751   0.2324765), wk =   0.0104167
        k(  105) = (   0.0000000  -0.3849002   0.0774922), wk =   0.0104167
        k(  106) = (   0.0000000  -0.3849002   0.1549843), wk =   0.0104167
        k(  107) = (   0.0000000  -0.3849002   0.2324765), wk =   0.0104167
        k(  108) = (   0.0000000  -0.4811252   0.0774922), wk =   0.0104167
        k(  109) = (   0.0000000  -0.4811252   0.1549843), wk =   0.0104167
        k(  110) = (   0.0000000  -0.4811252   0.2324765), wk =   0.0104167
        k(  111) = (  -0.0833333  -0.2405626   0.0774922), wk =   0.0208333
        k(  112) = (  -0.0833333  -0.2405626   0.1549843), wk =   0.0208333
        k(  113) = (  -0.0833333  -0.2405626   0.2324765), wk =   0.0208333
        k(  114) = (  -0.0833333  -0.3367877   0.0774922), wk =   0.0208333
        k(  115) = (  -0.0833333  -0.3367877   0.1549843), wk =   0.0208333
        k(  116) = (  -0.0833333  -0.3367877   0.2324765), wk =   0.0208333
        k(  117) = (  -0.0833333  -0.4330127   0.0774922), wk =   0.0208333
        k(  118) = (  -0.0833333  -0.4330127   0.1549843), wk =   0.0208333
        k(  119) = (  -0.0833333  -0.4330127   0.2324765), wk =   0.0208333
        k(  120) = (  -0.0833333  -0.5292377   0.0774922), wk =   0.0208333
        k(  121) = (  -0.0833333  -0.5292377   0.1549843), wk =   0.0208333
        k(  122) = (  -0.0833333  -0.5292377   0.2324765), wk =   0.0208333
        k(  123) = (  -0.1666667  -0.3849002   0.0774922), wk =   0.0208333
        k(  124) = (  -0.1666667  -0.3849002   0.1549843), wk =   0.0208333
        k(  125) = (  -0.1666667  -0.3849002   0.2324765), wk =   0.0208333
        k(  126) = (  -0.1666667  -0.4811252   0.0774922), wk =   0.0208333
        k(  127) = (  -0.1666667  -0.4811252   0.1549843), wk =   0.0208333
        k(  128) = (  -0.1666667  -0.4811252   0.2324765), wk =   0.0208333
        k(  129) = (  -0.2500000  -0.5292377   0.0774922), wk =   0.0208333
        k(  130) = (  -0.2500000  -0.5292377   0.1549843), wk =   0.0208333
        k(  131) = (  -0.2500000  -0.5292377   0.2324765), wk =   0.0208333

                       cryst. coord.
        k(    1) = (   0.0000000   0.0000000   0.0000000), wk =   0.0017361
        k(    2) = (   0.0000000   0.0000000   0.1250000), wk =   0.0034722
        k(    3) = (   0.0000000   0.0000000   0.2500000), wk =   0.0034722
        k(    4) = (   0.0000000   0.0000000   0.3750000), wk =   0.0034722
        k(    5) = (   0.0000000   0.0000000  -0.5000000), wk =   0.0017361
        k(    6) = (   0.0000000   0.0833333   0.0000000), wk =   0.0104167
        k(    7) = (   0.0000000   0.0833333   0.1250000), wk =   0.0104167
        k(    8) = (   0.0000000   0.0833333   0.2500000), wk =   0.0104167
        k(    9) = (   0.0000000   0.0833333   0.3750000), wk =   0.0104167
        k(   10) = (   0.0000000   0.0833333  -0.5000000), wk =   0.0104167
        k(   11) = (   0.0000000   0.1666667   0.0000000), wk =   0.0104167
        k(   12) = (   0.0000000   0.1666667   0.1250000), wk =   0.0104167
        k(   13) = (   0.0000000   0.1666667   0.2500000), wk =   0.0104167
        k(   14) = (   0.0000000   0.1666667   0.3750000), wk =   0.0104167
        k(   15) = (   0.0000000   0.1666667  -0.5000000), wk =   0.0104167
        k(   16) = (   0.0000000   0.2500000   0.0000000), wk =   0.0104167
        k(   17) = (   0.0000000   0.2500000   0.1250000), wk =   0.0104167
        k(   18) = (   0.0000000   0.2500000   0.2500000), wk =   0.0104167
        k(   19) = (   0.0000000   0.2500000   0.3750000), wk =   0.0104167
        k(   20) = (   0.0000000   0.2500000  -0.5000000), wk =   0.0104167
        k(   21) = (   0.0000000   0.3333333   0.0000000), wk =   0.0104167
        k(   22) = (   0.0000000   0.3333333   0.1250000), wk =   0.0104167
        k(   23) = (   0.0000000   0.3333333   0.2500000), wk =   0.0104167
        k(   24) = (   0.0000000   0.3333333   0.3750000), wk =   0.0104167
        k(   25) = (   0.0000000   0.3333333  -0.5000000), wk =   0.0104167
        k(   26) = (   0.0000000   0.4166667   0.0000000), wk =   0.0104167
        k(   27) = (   0.0000000   0.4166667   0.1250000), wk =   0.0104167
        k(   28) = (   0.0000000   0.4166667   0.2500000), wk =   0.0104167
        k(   29) = (   0.0000000   0.4166667   0.3750000), wk =   0.0104167
        k(   30) = (   0.0000000   0.4166667  -0.5000000), wk =   0.0104167
        k(   31) = (   0.0000000  -0.5000000   0.0000000), wk =   0.0052083
        k(   32) = (   0.0000000  -0.5000000   0.1250000), wk =   0.0104167
        k(   33) = (   0.0000000  -0.5000000   0.2500000), wk =   0.0104167
        k(   34) = (   0.0000000  -0.5000000   0.3750000), wk =   0.0104167
        k(   35) = (   0.0000000  -0.5000000  -0.5000000), wk =   0.0052083
        k(   36) = (   0.0833333   0.0833333   0.0000000), wk =   0.0104167
        k(   37) = (   0.0833333   0.0833333   0.1250000), wk =   0.0208333
        k(   38) = (   0.0833333   0.0833333   0.2500000), wk =   0.0208333
        k(   39) = (   0.0833333   0.0833333   0.3750000), wk =   0.0208333
        k(   40) = (   0.0833333   0.0833333  -0.5000000), wk =   0.0104167
        k(   41) = (   0.0833333   0.1666667   0.0000000), wk =   0.0208333
        k(   42) = (   0.0833333   0.1666667   0.1250000), wk =   0.0208333
        k(   43) = (   0.0833333   0.1666667   0.2500000), wk =   0.0208333
        k(   44) = (   0.0833333   0.1666667   0.3750000), wk =   0.0208333
        k(   45) = (   0.0833333   0.1666667  -0.5000000), wk =   0.0208333
        k(   46) = (   0.0833333   0.2500000   0.0000000), wk =   0.0208333
        k(   47) = (   0.0833333   0.2500000   0.1250000), wk =   0.0208333
        k(   48) = (   0.0833333   0.2500000   0.2500000), wk =   0.0208333
        k(   49) = (   0.0833333   0.2500000   0.3750000), wk =   0.0208333
        k(   50) = (   0.0833333   0.2500000  -0.5000000), wk =   0.0208333
        k(   51) = (   0.0833333   0.3333333   0.0000000), wk =   0.0208333
        k(   52) = (   0.0833333   0.3333333   0.1250000), wk =   0.0208333
        k(   53) = (   0.0833333   0.3333333   0.2500000), wk =   0.0208333
        k(   54) = (   0.0833333   0.3333333   0.3750000), wk =   0.0208333
        k(   55) = (   0.0833333   0.3333333  -0.5000000), wk =   0.0208333
        k(   56) = (   0.0833333   0.4166667   0.0000000), wk =   0.0208333
        k(   57) = (   0.0833333   0.4166667   0.1250000), wk =   0.0208333
        k(   58) = (   0.0833333   0.4166667   0.2500000), wk =   0.0208333
        k(   59) = (   0.0833333   0.4166667   0.3750000), wk =   0.0208333
        k(   60) = (   0.0833333   0.4166667  -0.5000000), wk =   0.0208333
        k(   61) = (   0.1666667   0.1666667   0.0000000), wk =   0.0104167
        k(   62) = (   0.1666667   0.1666667   0.1250000), wk =   0.0208333
        k(   63) = (   0.1666667   0.1666667   0.2500000), wk =   0.0208333
        k(   64) = (   0.1666667   0.1666667   0.3750000), wk =   0.0208333
        k(   65) = (   0.1666667   0.1666667  -0.5000000), wk =   0.0104167
        k(   66) = (   0.1666667   0.2500000   0.0000000), wk =   0.0208333
        k(   67) = (   0.1666667   0.2500000   0.1250000), wk =   0.0208333
        k(   68) = (   0.1666667   0.2500000   0.2500000), wk =   0.0208333
        k(   69) = (   0.1666667   0.2500000   0.3750000), wk =   0.0208333
        k(   70) = (   0.1666667   0.2500000  -0.5000000), wk =   0.0208333
        k(   71) = (   0.1666667   0.3333333   0.0000000), wk =   0.0208333
        k(   72) = (   0.1666667   0.3333333   0.1250000), wk =   0.0208333
        k(   73) = (   0.1666667   0.3333333   0.2500000), wk =   0.0208333
        k(   74) = (   0.1666667   0.3333333   0.3750000), wk =   0.0208333
        k(   75) = (   0.1666667   0.3333333  -0.5000000), wk =   0.0208333
        k(   76) = (   0.1666667   0.4166667   0.0000000), wk =   0.0104167
        k(   77) = (   0.1666667   0.4166667   0.1250000), wk =   0.0208333
        k(   78) = (   0.1666667   0.4166667   0.2500000), wk =   0.0208333
        k(   79) = (   0.1666667   0.4166667   0.3750000), wk =   0.0208333
        k(   80) = (   0.1666667   0.4166667  -0.5000000), wk =   0.0104167
        k(   81) = (   0.2500000   0.2500000   0.0000000), wk =   0.0104167
        k(   82) = (   0.2500000   0.2500000   0.1250000), wk =   0.0208333
        k(   83) = (   0.2500000   0.2500000   0.2500000), wk =   0.0208333
        k(   84) = (   0.2500000   0.2500000   0.3750000), wk =   0.0208333
        k(   85) = (   0.2500000   0.2500000  -0.5000000), wk =   0.0104167
        k(   86) = (   0.2500000   0.3333333   0.0000000), wk =   0.0208333
        k(   87) = (   0.2500000   0.3333333   0.1250000), wk =   0.0208333
        k(   88) = (   0.2500000   0.3333333   0.2500000), wk =   0.0208333
        k(   89) = (   0.2500000   0.3333333   0.3750000), wk =   0.0208333
        k(   90) = (   0.2500000   0.3333333  -0.5000000), wk =   0.0208333
        k(   91) = (   0.3333333   0.3333333   0.0000000), wk =   0.0034722
        k(   92) = (   0.3333333   0.3333333   0.1250000), wk =   0.0069444
        k(   93) = (   0.3333333   0.3333333   0.2500000), wk =   0.0069444
        k(   94) = (   0.3333333   0.3333333   0.3750000), wk =   0.0069444
        k(   95) = (   0.3333333   0.3333333  -0.5000000), wk =   0.0034722
        k(   96) = (   0.0000000  -0.0833333   0.1250000), wk =   0.0104167
        k(   97) = (   0.0000000  -0.0833333   0.2500000), wk =   0.0104167
        k(   98) = (   0.0000000  -0.0833333   0.3750000), wk =   0.0104167
        k(   99) = (   0.0000000  -0.1666667   0.1250000), wk =   0.0104167
        k(  100) = (   0.0000000  -0.1666667   0.2500000), wk =   0.0104167
        k(  101) = (   0.0000000  -0.1666667   0.3750000), wk =   0.0104167
        k(  102) = (   0.0000000  -0.2500000   0.1250000), wk =   0.0104167
        k(  103) = (   0.0000000  -0.2500000   0.2500000), wk =   0.0104167
        k(  104) = (   0.0000000  -0.2500000   0.3750000), wk =   0.0104167
        k(  105) = (   0.0000000  -0.3333333   0.1250000), wk =   0.0104167
        k(  106) = (   0.0000000  -0.3333333   0.2500000), wk =   0.0104167
        k(  107) = (   0.0000000  -0.3333333   0.3750000), wk =   0.0104167
        k(  108) = (   0.0000000  -0.4166667   0.1250000), wk =   0.0104167
        k(  109) = (   0.0000000  -0.4166667   0.2500000), wk =   0.0104167
        k(  110) = (   0.0000000  -0.4166667   0.3750000), wk =   0.0104167
        k(  111) = (  -0.0833333  -0.1666667   0.1250000), wk =   0.0208333
        k(  112) = (  -0.0833333  -0.1666667   0.2500000), wk =   0.0208333
        k(  113) = (  -0.0833333  -0.1666667   0.3750000), wk =   0.0208333
        k(  114) = (  -0.0833333  -0.2500000   0.1250000), wk =   0.0208333
        k(  115) = (  -0.0833333  -0.2500000   0.2500000), wk =   0.0208333
        k(  116) = (  -0.0833333  -0.2500000   0.3750000), wk =   0.0208333
        k(  117) = (  -0.0833333  -0.3333333   0.1250000), wk =   0.0208333
        k(  118) = (  -0.0833333  -0.3333333   0.2500000), wk =   0.0208333
        k(  119) = (  -0.0833333  -0.3333333   0.3750000), wk =   0.0208333
        k(  120) = (  -0.0833333  -0.4166667   0.1250000), wk =   0.0208333
        k(  121) = (  -0.0833333  -0.4166667   0.2500000), wk =   0.0208333
        k(  122) = (  -0.0833333  -0.4166667   0.3750000), wk =   0.0208333
        k(  123) = (  -0.1666667  -0.2500000   0.1250000), wk =   0.0208333
        k(  124) = (  -0.1666667  -0.2500000   0.2500000), wk =   0.0208333
        k(  125) = (  -0.1666667  -0.2500000   0.3750000), wk =   0.0208333
        k(  126) = (  -0.1666667  -0.3333333   0.1250000), wk =   0.0208333
        k(  127) = (  -0.1666667  -0.3333333   0.2500000), wk =   0.0208333
        k(  128) = (  -0.1666667  -0.3333333   0.3750000), wk =   0.0208333
        k(  129) = (  -0.2500000  -0.3333333   0.1250000), wk =   0.0208333
        k(  130) = (  -0.2500000  -0.3333333   0.2500000), wk =   0.0208333
        k(  131) = (  -0.2500000  -0.3333333   0.3750000), wk =   0.0208333

     Dense  grid:    43245 G-vectors     FFT dimensions: (  40,  40,  64)

     Smooth grid:    15267 G-vectors     FFT dimensions: (  27,  27,  45)

     Dynamical RAM for                 wfc:       0.82 MB

     Dynamical RAM for     wfc (w. buffer):     107.72 MB

     Dynamical RAM for           str. fact:       1.32 MB

     Dynamical RAM for           local pot:       0.00 MB

     Dynamical RAM for          nlocal pot:       1.28 MB

     Dynamical RAM for                qrad:       6.42 MB

     Dynamical RAM for          rho,v,vnew:       4.32 MB

     Dynamical RAM for               rhoin:       1.44 MB

     Dynamical RAM for            rho*nmix:      10.56 MB

     Dynamical RAM for           G-vectors:       2.59 MB

     Dynamical RAM for          h,s,v(r/c):       0.14 MB

     Dynamical RAM for          <psi|beta>:       0.02 MB

     Dynamical RAM for                 psi:       1.63 MB

     Dynamical RAM for                hpsi:       1.63 MB

     Dynamical RAM for                spsi:       1.63 MB

     Dynamical RAM for      wfcinit/wfcrot:       1.77 MB

     Dynamical RAM for           addusdens:     124.05 MB

     Dynamical RAM for          addusforce:     125.71 MB

     Dynamical RAM for         addusstress:     132.63 MB

     Estimated static dynamical RAM per process >     130.98 MB

     Estimated max dynamical RAM per process >     274.17 MB

     Check: negative core charge=   -0.000002

     Initial potential from superposition of free atoms

     starting charge      45.9997, renormalised to      46.0000
     Starting wfcs are   30 randomized atomic wfcs
     Checking if some PAW data can be deallocated... 

     total cpu time spent up to now is       10.5 secs

     Self-consistent Calculation

     iteration #  1     ecut=    50.00 Ry     beta= 0.40
     Davidson diagonalization with overlap

---- Real-time Memory Report at c_bands before calling an iterative solver
           181 MiB given to the printing process from OS
             0 MiB allocation reported by mallinfo(arena+hblkhd)
          4930 MiB available memory on the node where the printing process lives
------------------
     ethr =  1.00E-02,  avg # of iterations =  2.7

     total cpu time spent up to now is      147.6 secs

     total energy              =    -964.59259185 Ry
     estimated scf accuracy    <       0.54912812 Ry

     iteration #  2     ecut=    50.00 Ry     beta= 0.40
     Davidson diagonalization with overlap

---- Real-time Memory Report at c_bands before calling an iterative solver
           322 MiB given to the printing process from OS
             0 MiB allocation reported by mallinfo(arena+hblkhd)
          4879 MiB available memory on the node where the printing process lives
------------------
     ethr =  1.19E-03,  avg # of iterations =  2.2

     total cpu time spent up to now is      405.7 secs

     total energy              =    -964.74850586 Ry
     estimated scf accuracy    <       0.17384676 Ry

     iteration #  3     ecut=    50.00 Ry     beta= 0.40
     Davidson diagonalization with overlap

---- Real-time Memory Report at c_bands before calling an iterative solver
           323 MiB given to the printing process from OS
             0 MiB allocation reported by mallinfo(arena+hblkhd)
          4876 MiB available memory on the node where the printing process lives
------------------
     ethr =  3.78E-04,  avg # of iterations =  2.0

     total cpu time spent up to now is      554.6 secs

     total energy              =    -964.77703217 Ry
     estimated scf accuracy    <       0.00667928 Ry

     iteration #  4     ecut=    50.00 Ry     beta= 0.40
     Davidson diagonalization with overlap

---- Real-time Memory Report at c_bands before calling an iterative solver
           326 MiB given to the printing process from OS
             0 MiB allocation reported by mallinfo(arena+hblkhd)
          4866 MiB available memory on the node where the printing process lives
------------------
     ethr =  1.45E-05,  avg # of iterations =  3.5

     total cpu time spent up to now is      587.5 secs

     total energy              =    -964.77743754 Ry
     estimated scf accuracy    <       0.00028666 Ry

     iteration #  5     ecut=    50.00 Ry     beta= 0.40
     Davidson diagonalization with overlap

---- Real-time Memory Report at c_bands before calling an iterative solver
           326 MiB given to the printing process from OS
             0 MiB allocation reported by mallinfo(arena+hblkhd)
          4868 MiB available memory on the node where the printing process lives
------------------
     ethr =  6.23E-07,  avg # of iterations =  2.9

     total cpu time spent up to now is      612.2 secs

     total energy              =    -964.77748927 Ry
     estimated scf accuracy    <       0.00004458 Ry

     iteration #  6     ecut=    50.00 Ry     beta= 0.40
     Davidson diagonalization with overlap

---- Real-time Memory Report at c_bands before calling an iterative solver
           327 MiB given to the printing process from OS
             0 MiB allocation reported by mallinfo(arena+hblkhd)
          4870 MiB available memory on the node where the printing process lives
------------------
     ethr =  9.69E-08,  avg # of iterations =  2.0

     total cpu time spent up to now is      639.9 secs

     total energy              =    -964.77749766 Ry
     estimated scf accuracy    <       0.00000661 Ry

     iteration #  7     ecut=    50.00 Ry     beta= 0.40
     Davidson diagonalization with overlap

---- Real-time Memory Report at c_bands before calling an iterative solver
           327 MiB given to the printing process from OS
             0 MiB allocation reported by mallinfo(arena+hblkhd)
          4867 MiB available memory on the node where the printing process lives
------------------
     ethr =  1.44E-08,  avg # of iterations =  2.0

     total cpu time spent up to now is      673.3 secs

     total energy              =    -964.77749818 Ry
     estimated scf accuracy    <       0.00000081 Ry

     iteration #  8     ecut=    50.00 Ry     beta= 0.40
     Davidson diagonalization with overlap

---- Real-time Memory Report at c_bands before calling an iterative solver
           328 MiB given to the printing process from OS
             0 MiB allocation reported by mallinfo(arena+hblkhd)
          4865 MiB available memory on the node where the printing process lives
------------------
     ethr =  1.76E-09,  avg # of iterations =  2.0

     total cpu time spent up to now is      701.8 secs

     total energy              =    -964.77749839 Ry
     estimated scf accuracy    <       0.00000006 Ry

     iteration #  9     ecut=    50.00 Ry     beta= 0.40
     Davidson diagonalization with overlap

---- Real-time Memory Report at c_bands before calling an iterative solver
           328 MiB given to the printing process from OS
             0 MiB allocation reported by mallinfo(arena+hblkhd)
          4865 MiB available memory on the node where the printing process lives
------------------
     ethr =  1.31E-10,  avg # of iterations =  2.0

     total cpu time spent up to now is      727.2 secs

     End of self-consistent calculation

          k = 0.0000 0.0000 0.0000 (  1883 PWs)   bands (ev):

  -116.8088-116.6214 -70.9956 -70.9956 -70.9327 -70.8695 -70.7760 -70.7760
   -10.7145   1.2314   1.3054   1.3054   1.9448   2.2067   2.2067   2.3221
     2.3221   2.4995   2.4995   3.7109   3.9897   6.5949   6.5949  11.1046
    12.0382  20.0330  20.0330  20.9549

     occupation numbers 
     1.0000   1.0000   1.0000   1.0000   1.0000   1.0000   1.0000   1.0000
     1.0000   1.0000   1.0000   1.0000   1.0000   1.0000   1.0000   1.0000
     1.0000   1.0000   1.0000   1.0000   1.0000   1.0000   1.0000   0.0000
     0.0000   0.0000   0.0000   0.0000

          k = 0.0000 0.0000 0.0775 (  1876 PWs)   bands (ev):

  -116.8088-116.6214 -70.9955 -70.9955 -70.9328 -70.8696 -70.7760 -70.7760
   -10.7123   1.1757   1.3026   1.3026   1.9591   2.2037   2.2037   2.3314
     2.3314   2.4963   2.4963   3.2723   4.6079   6.5973   6.5973  10.4627
    12.7002  20.0422  20.0423  20.9070

     occupation numbers 
     1.0000   1.0000   1.0000   1.0000   1.0000   1.0000   1.0000   1.0000
     1.0000   1.0000   1.0000   1.0000   1.0000   1.0000   1.0000   1.0000
     1.0000   1.0000   1.0000   1.0000   1.0000   1.0000   1.0000   0.0000
     0.0000   0.0000   0.0000   0.0000

          k = 0.0000 0.0000 0.1550 (  1882 PWs)   bands (ev):

  -116.8088-116.6214 -70.9955 -70.9955 -70.9328 -70.8697 -70.7760 -70.7760
   -10.7071   1.0417   1.2957   1.2957   2.0011   2.1965   2.1965   2.3560
     2.3560   2.4857   2.4857   2.9015   5.4783   6.6030   6.6030   9.5149
    13.7018  19.5461  20.0499  20.0499

     occupation numbers 
     1.0000   1.0000   1.0000   1.0000   1.0000   1.0000   1.0000   1.0000
     1.0000   1.0000   1.0000   1.0000   1.0000   1.0000   1.0000   1.0000
     1.0000   1.0000   1.0000   1.0000   1.0000   1.0000   1.0000   0.0000
     0.0000   0.0000   0.0000   0.0000

          k = 0.0000 0.0000 0.2325 (  1888 PWs)   bands (ev):

  -116.8088-116.6214 -70.9955 -70.9955 -70.9329 -70.8697 -70.7760 -70.7760
   -10.7017   0.9107   1.2889   1.2889   2.0570   2.1895   2.1895   2.3876
     2.3876   2.4678   2.4678   2.6804   6.4225   6.6087   6.6087   8.5455
    14.7130  18.2046  20.0325  20.0325

     occupation numbers 
     1.0000   1.0000   1.0000   1.0000   1.0000   1.0000   1.0000   1.0000
     1.0000   1.0000   1.0000   1.0000   1.0000   1.0000   1.0000   1.0000
     1.0000   1.0000   1.0000   1.0000   1.0000   1.0000   1.0000   1.0142
     0.0000   0.0000   0.0000   0.0000

          k = 0.0000 0.0000-0.3100 (  1894 PWs)   bands (ev):

  -116.8088-116.6214 -70.9955 -70.9955 -70.9329 -70.8698 -70.7760 -70.7760
   -10.6996   0.8578   1.2862   1.2862   2.0872   2.1867   2.1867   2.4075
     2.4075   2.4534   2.4534   2.6016   6.6111   6.6111   7.1548   7.8100
    15.3063  17.4863  20.0179  20.0179

     occupation numbers 
     1.0000   1.0000   1.0000   1.0000   1.0000   1.0000   1.0000   1.0000
     1.0000   1.0000   1.0000   1.0000   1.0000   1.0000   1.0000   1.0000
     1.0000   1.0000   1.0000   1.0000   1.0000   1.0000   1.0000   1.0000
     0.0000   0.0000   0.0000   0.0000

          k = 0.0000 0.0962 0.0000 (  1882 PWs)   bands (ev):

  -116.8088-116.6214 -70.9957 -70.9956 -70.9327 -70.8695 -70.7761 -70.7761
   -10.6852   1.2531   1.2864   1.3303   1.9887   2.2011   2.2225   2.3093
     2.3185   2.4672   2.5028   3.7956   4.0594   6.3819   6.5212  11.3502
    12.1072  18.7432  19.6260  20.3214

     occupation numbers 
     1.0000   1.0000   1.0000   1.0000   1.0000   1.0000   1.0000   1.0000
     1.0000   1.0000   1.0000   1.0000   1.0000   1.0000   1.0000   1.0000
     1.0000   1.0000   1.0000   1.0000   1.0000   1.0000   1.0000   0.0000
     0.0000   0.0000   0.0000   0.0000

          k = 0.0000 0.0962 0.0775 (  1898 PWs)   bands (ev):

  -116.8088-116.6214 -70.9957 -70.9956 -70.9329 -70.8697 -70.7762 -70.7761
   -10.6830   1.1967   1.2876   1.3269   2.0024   2.1989   2.2189   2.3174
     2.3309   2.4624   2.4975   3.3606   4.6612   6.3930   6.5230  10.6660
    12.8124  18.7124  19.7411  20.3638

     occupation numbers 
     1.0000   1.0000   1.0000   1.0000   1.0000   1.0000   1.0000   1.0000
     1.0000   1.0000   1.0000   1.0000   1.0000   1.0000   1.0000   1.0000
     1.0000   1.0000   1.0000   1.0000   1.0000   1.0000   1.0000   0.0000
     0.0000   0.0000   0.0000   0.0000

          k = 0.0000 0.0962 0.1550 (  1891 PWs)   bands (ev):

  -116.8088-116.6214 -70.9957 -70.9956 -70.9328 -70.8697 -70.7762 -70.7760
   -10.6779   1.0726   1.2777   1.3201   2.0426   2.1919   2.2118   2.3433
     2.3575   2.4482   2.4845   2.9919   5.4726   6.4391   6.5294   9.7214
    13.8226  18.7279  19.5267  19.8406

     occupation numbers 
     1.0000   1.0000   1.0000   1.0000   1.0000   1.0000   1.0000   1.0000
     1.0000   1.0000   1.0000   1.0000   1.0000   1.0000   1.0000   1.0000
     1.0000   1.0000   1.0000   1.0000   1.0000   1.0000   1.0000   0.0000
     0.0000   0.0000   0.0000   0.0000

          k = 0.0000 0.0962 0.2325 (  1897 PWs)   bands (ev):

  -116.8088-116.6214 -70.9957 -70.9956 -70.9329 -70.8698 -70.7762 -70.7760
   -10.6727   0.9494   1.2691   1.3139   2.0960   2.1861   2.2051   2.3725
     2.3895   2.4293   2.4646   2.7726   6.1119   6.5366   6.7045   8.7917
    14.8493  18.0353  19.0314  19.8066

     occupation numbers 
     1.0000   1.0000   1.0000   1.0000   1.0000   1.0000   1.0000   1.0000
     1.0000   1.0000   1.0000   1.0000   1.0000   1.0000   1.0000   1.0000
     1.0000   1.0000   1.0000   1.0000   1.0000   1.0000   1.0000   1.0661
     0.0000   0.0000   0.0000   0.0000

          k = 0.0000 0.0962-0.3100 (  1894 PWs)   bands (ev):

  -116.8088-116.6214 -70.9957 -70.9956 -70.9329 -70.8698 -70.7761 -70.7760
   -10.6705   0.9001   1.2645   1.3119   2.1243   2.1844   2.2024   2.3769
     2.4047   2.4309   2.4534   2.6935   6.2343   6.5405   7.1832   8.1874
    15.4958  17.2864  19.2028  19.6682

     occupation numbers 
     1.0000   1.0000   1.0000   1.0000   1.0000   1.0000   1.0000   1.0000
     1.0000   1.0000   1.0000   1.0000   1.0000   1.0000   1.0000   1.0000
     1.0000   1.0000   1.0000   1.0000   1.0000   1.0000   1.0000   1.0000
     0.0000   0.0000   0.0000   0.0000

          k = 0.0000 0.1925 0.0000 (  1890 PWs)   bands (ev):

  -116.8088-116.6214 -70.9960 -70.9957 -70.9327 -70.8695 -70.7766 -70.7762
   -10.6040   1.1929   1.3744   1.3976   2.0669   2.2079   2.2658   2.2756
     2.3146   2.4067   2.5108   3.9578   4.2782   5.9357   6.3182  11.7576
    12.4874  16.6118  18.8948  19.1098

     occupation numbers 
     1.0000   1.0000   1.0000   1.0000   1.0000   1.0000   1.0000   1.0000
     1.0000   1.0000   1.0000   1.0000   1.0000   1.0000   1.0000   1.0000
     1.0000   1.0000   1.0000   1.0000   1.0000   1.0000   1.0000   0.0000
     0.0000   0.0000   0.0000   0.0000

          k = 0.0000 0.1925 0.0775 (  1894 PWs)   bands (ev):

  -116.8088-116.6214 -70.9960 -70.9957 -70.9327 -70.8696 -70.7766 -70.7762
   -10.6020   1.1628   1.3545   1.3940   2.0749   2.2131   2.2621   2.2897
     2.3296   2.3943   2.5030   3.5902   4.7409   6.0067   6.3206  11.0980
    13.1487  16.6273  18.9642  19.1343

     occupation numbers 
     1.0000   1.0000   1.0000   1.0000   1.0000   1.0000   1.0000   1.0000
     1.0000   1.0000   1.0000   1.0000   1.0000   1.0000   1.0000   1.0000
     1.0000   1.0000   1.0000   1.0000   1.0000   1.0000   1.0000   0.0000
     0.0000   0.0000   0.0000   0.0000

          k = 0.0000 0.1925 0.1550 (  1905 PWs)   bands (ev):

  -116.8088-116.6214 -70.9961 -70.9957 -70.9328 -70.8697 -70.7766 -70.7762
   -10.5972   1.0996   1.2950   1.3881   2.0983   2.2138   2.2552   2.3283
     2.3570   2.3824   2.4862   3.2292   5.2588   6.2917   6.3298  10.1944
    14.0881  16.7330  18.8270  18.9732

     occupation numbers 
     1.0000   1.0000   1.0000   1.0000   1.0000   1.0000   1.0000   1.0000
     1.0000   1.0000   1.0000   1.0000   1.0000   1.0000   1.0000   1.0000
     1.0000   1.0000   1.0000   1.0000   1.0000   1.0000   1.0000   0.0000
     0.0000   0.0000   0.0000   0.0000

          k = 0.0000 0.1925 0.2325 (  1907 PWs)   bands (ev):

  -116.8088-116.6214 -70.9961 -70.9957 -70.9328 -70.8697 -70.7766 -70.7762
   -10.5923   1.0211   1.2524   1.3835   2.1217   2.2207   2.2488   2.3448
     2.3879   2.4044   2.4638   2.9995   5.4943   6.3406   6.8672   9.3553
    15.0259  16.7700  18.2662  18.9027

     occupation numbers 
     1.0000   1.0000   1.0000   1.0000   1.0000   1.0000   1.0000   1.0000
     1.0000   1.0000   1.0000   1.0000   1.0000   1.0000   1.0000   1.0000
     1.0000   1.0000   1.0000   1.0000   1.0000   1.0000   1.0000   0.0020
     0.0000   0.0000   0.0000   0.0000

          k = 0.0000 0.1925-0.3100 (  1918 PWs)   bands (ev):

  -116.8088-116.6214 -70.9961 -70.9957 -70.9329 -70.8698 -70.7767 -70.7762
   -10.5903   0.9922   1.2309   1.3827   2.1315   2.2251   2.2460   2.3307
     2.3974   2.4467   2.4561   2.9085   5.5516   6.3466   7.2576   8.9042
    15.8475  16.2548  18.2453  18.5928

     occupation numbers 
     1.0000   1.0000   1.0000   1.0000   1.0000   1.0000   1.0000   1.0000
     1.0000   1.0000   1.0000   1.0000   1.0000   1.0000   1.0000   1.0000
     1.0000   1.0000   1.0000   1.0000   1.0000   1.0000   1.0000   0.8409
     0.0000   0.0000   0.0000   0.0000

          k = 0.0000 0.2887 0.0000 (  1908 PWs)   bands (ev):

  -116.8087-116.6214 -70.9966 -70.9958 -70.9327 -70.8695 -70.7772 -70.7763
   -10.4908   1.1293   1.4864   1.5160   2.0675   2.2136   2.3027   2.3172
     2.3335   2.3744   2.5212   4.0665   4.4257   5.7835   6.0353  11.9402
    13.2858  14.4703  17.9733  18.1720

     occupation numbers 
     1.0000   1.0000   1.0000   1.0000   1.0000   1.0000   1.0000   1.0000
     1.0000   1.0000   1.0000   1.0000   1.0000   1.0000   1.0000   1.0000
     1.0000   1.0000   1.0000   1.0000   1.0000   1.0000   1.0000   0.0000
     0.0000   0.0000   0.0000   0.0000

          k = 0.0000 0.2887 0.0775 (  1905 PWs)   bands (ev):

  -116.8087-116.6214 -70.9965 -70.9959 -70.9327 -70.8696 -70.7772 -70.7763
   -10.4890   1.1029   1.4833   1.4954   2.0702   2.2188   2.3211   2.3298
     2.3419   2.3529   2.5109   3.8999   4.5238   6.0081   6.0393  11.4744
    13.5755  14.6780  17.9563  18.1884

     occupation numbers 
     1.0000   1.0000   1.0000   1.0000   1.0000   1.0000   1.0000   1.0000
     1.0000   1.0000   1.0000   1.0000   1.0000   1.0000   1.0000   1.0000
     1.0000   1.0000   1.0000   1.0000   1.0000   1.0000   1.0000   0.0000
     0.0000   0.0000   0.0000   0.0000

          k = 0.0000 0.2887 0.1550 (  1906 PWs)   bands (ev):

  -116.8087-116.6214 -70.9965 -70.9959 -70.9327 -70.8696 -70.7772 -70.7764
   -10.4846   1.0625   1.4165   1.4803   2.0775   2.2209   2.3169   2.3348
     2.3637   2.4009   2.4914   3.5983   4.6960   6.0533   6.5208  10.7205
    13.8404  15.3324  17.6571  18.1210

     occupation numbers 
     1.0000   1.0000   1.0000   1.0000   1.0000   1.0000   1.0000   1.0000
     1.0000   1.0000   1.0000   1.0000   1.0000   1.0000   1.0000   1.0000
     1.0000   1.0000   1.0000   1.0000   1.0000   1.0000   1.0000   0.0000
     0.0000   0.0000   0.0000   0.0000

          k = 0.0000 0.2887 0.2325 (  1913 PWs)   bands (ev):

  -116.8087-116.6214 -70.9965 -70.9959 -70.9328 -70.8696 -70.7772 -70.7764
   -10.4803   1.0255   1.3364   1.4790   2.0882   2.2067   2.3103   2.3568
     2.3871   2.4628   2.4702   3.3803   4.7916   6.0691   7.0993  10.0503
    13.9568  16.1710  17.3296  18.0121

     occupation numbers 
     1.0000   1.0000   1.0000   1.0000   1.0000   1.0000   1.0000   1.0000
     1.0000   1.0000   1.0000   1.0000   1.0000   1.0000   1.0000   1.0000
     1.0000   1.0000   1.0000   1.0000   1.0000   1.0000   1.0000   0.0000
     0.0000   0.0000   0.0000   0.0000

          k = 0.0000 0.2887-0.3100 (  1910 PWs)   bands (ev):

  -116.8087-116.6214 -70.9965 -70.9958 -70.9328 -70.8696 -70.7772 -70.7763
   -10.4784   1.0225   1.2897   1.4803   2.0944   2.1978   2.3060   2.3646
     2.3895   2.4678   2.5085   3.2802   4.8353   6.0775   7.3771   9.7502
    14.0605  16.5138  17.2388  17.9306

     occupation numbers 
     1.0000   1.0000   1.0000   1.0000   1.0000   1.0000   1.0000   1.0000
     1.0000   1.0000   1.0000   1.0000   1.0000   1.0000   1.0000   1.0000
     1.0000   1.0000   1.0000   1.0000   1.0000   1.0000   1.0000   0.0000
     0.0000   0.0000   0.0000   0.0000

          k = 0.0000 0.3849 0.0000 (  1906 PWs)   bands (ev):

  -116.8087-116.6213 -70.9970 -70.9960 -70.9327 -70.8695 -70.7777 -70.7765
   -10.3749   1.1003   1.5670   1.6700   2.0293   2.2040   2.3122   2.3520
     2.3926   2.4415   2.5350   3.7643   4.5268   5.7414   6.3596  11.9218
    12.5825  14.1305  17.0440  17.5871

     occupation numbers 
     1.0000   1.0000   1.0000   1.0000   1.0000   1.0000   1.0000   1.0000
     1.0000   1.0000   1.0000   1.0000   1.0000   1.0000   1.0000   1.0000
     1.0000   1.0000   1.0000   1.0000   1.0000   1.0000   1.0000   0.0000
     0.0000   0.0000   0.0000   0.0000

          k = 0.0000 0.3849 0.0775 (  1915 PWs)   bands (ev):

  -116.8087-116.6213 -70.9970 -70.9960 -70.9327 -70.8695 -70.7778 -70.7765
   -10.3732   1.0742   1.5658   1.6526   2.0336   2.1928   2.3102   2.3634
     2.3912   2.4494   2.5233   3.8730   4.3545   5.7479   6.5820  11.4254
    12.8149  14.3865  17.0232  17.5642

     occupation numbers 
     1.0000   1.0000   1.0000   1.0000   1.0000   1.0000   1.0000   1.0000
     1.0000   1.0000   1.0000   1.0000   1.0000   1.0000   1.0000   1.0000
     1.0000   1.0000   1.0000   1.0000   1.0000   1.0000   1.0000   0.0000
     0.0000   0.0000   0.0000   0.0000

          k = 0.0000 0.3849 0.1550 (  1919 PWs)   bands (ev):

  -116.8087-116.6213 -70.9970 -70.9960 -70.9327 -70.8696 -70.7778 -70.7765
   -10.3693   1.0334   1.5678   1.5681   2.0390   2.1902   2.3233   2.3705
     2.3917   2.4974   2.5049   3.9418   4.1742   5.7677   7.0184  10.9497
    12.6363  15.0423  16.9255  17.4495

     occupation numbers 
     1.0000   1.0000   1.0000   1.0000   1.0000   1.0000   1.0000   1.0000
     1.0000   1.0000   1.0000   1.0000   1.0000   1.0000   1.0000   1.0000
     1.0000   1.0000   1.0000   1.0000   1.0000   1.0000   1.0000   0.0000
     0.0000   0.0000   0.0000   0.0000

          k = 0.0000 0.3849 0.2325 (  1915 PWs)   bands (ev):

  -116.8087-116.6213 -70.9970 -70.9960 -70.9327 -70.8696 -70.7777 -70.7765
   -10.3654   0.9994   1.4782   1.5724   2.0487   2.1762   2.3622   2.3635
     2.3990   2.4909   2.5456   3.8417   4.1846   5.7891   7.4242  10.6771
    12.3292  15.4923  17.1982  17.3181

     occupation numbers 
     1.0000   1.0000   1.0000   1.0000   1.0000   1.0000   1.0000   1.0000
     1.0000   1.0000   1.0000   1.0000   1.0000   1.0000   1.0000   1.0000
     1.0000   1.0000   1.0000   1.0000   1.0000   1.0000   1.0000   0.0000
     0.0000   0.0000   0.0000   0.0000

          k = 0.0000 0.3849-0.3100 (  1906 PWs)   bands (ev):

  -116.8087-116.6213 -70.9970 -70.9959 -70.9327 -70.8695 -70.7777 -70.7765
   -10.3638   0.9955   1.4275   1.5764   2.0547   2.1709   2.3528   2.3876
     2.3992   2.4928   2.5776   3.7041   4.2791   5.7996   7.5615  10.6736
    12.1485  15.5480  17.2454  17.6284

     occupation numbers 
     1.0000   1.0000   1.0000   1.0000   1.0000   1.0000   1.0000   1.0000
     1.0000   1.0000   1.0000   1.0000   1.0000   1.0000   1.0000   1.0000
     1.0000   1.0000   1.0000   1.0000   1.0000   1.0000   1.0000   0.0000
     0.0000   0.0000   0.0000   0.0000

          k = 0.0000 0.4811 0.0000 (  1918 PWs)   bands (ev):

  -116.8087-116.6213 -70.9973 -70.9961 -70.9327 -70.8695 -70.7782 -70.7766
   -10.2881   1.1024   1.6171   1.7819   1.9966   2.2738   2.3192   2.3891
     2.4397   2.5146   2.5539   3.2442   4.6990   5.5151   7.3639  10.5246
    12.3083  14.6504  16.3815  17.2108

     occupation numbers 
     1.0000   1.0000   1.0000   1.0000   1.0000   1.0000   1.0000   1.0000
     1.0000   1.0000   1.0000   1.0000   1.0000   1.0000   1.0000   1.0000
     1.0000   1.0000   1.0000   1.0000   1.0000   1.0000   1.0000   0.0000
     0.0000   0.0000   0.0000   0.0000

          k = 0.0000 0.4811 0.0775 (  1913 PWs)   bands (ev):

  -116.8087-116.6213 -70.9973 -70.9961 -70.9327 -70.8695 -70.7782 -70.7766
   -10.2866   1.0778   1.6191   1.7664   2.0006   2.2300   2.3340   2.3917
     2.4401   2.5134   2.5443   3.3384   4.6263   5.5245   7.5261  10.2258
    12.5684  14.5036  16.5081  17.1614

     occupation numbers 
     1.0000   1.0000   1.0000   1.0000   1.0000   1.0000   1.0000   1.0000
     1.0000   1.0000   1.0000   1.0000   1.0000   1.0000   1.0000   1.0000
     1.0000   1.0000   1.0000   1.0000   1.0000   1.0000   1.0000   0.0000
     0.0000   0.0000   0.0000   0.0000

          k = 0.0000 0.4811 0.1550 (  1915 PWs)   bands (ev):

  -116.8087-116.6213 -70.9973 -70.9961 -70.9327 -70.8695 -70.7781 -70.7766
   -10.2830   1.0321   1.6275   1.6816   2.0093   2.2024   2.3562   2.3844
     2.4402   2.5308   2.5543   3.4446   4.5369   5.5496   7.7817   9.9889
    12.5874  14.3757  16.8553  17.0205

     occupation numbers 
     1.0000   1.0000   1.0000   1.0000   1.0000   1.0000   1.0000   1.0000
     1.0000   1.0000   1.0000   1.0000   1.0000   1.0000   1.0000   1.0000
     1.0000   1.0000   1.0000   1.0000   1.0000   1.0000   1.0000   0.0000
     0.0000   0.0000   0.0000   0.0000

          k = 0.0000 0.4811 0.2325 (  1911 PWs)   bands (ev):

  -116.8087-116.6213 -70.9973 -70.9961 -70.9327 -70.8695 -70.7781 -70.7766
   -10.2794   0.9912   1.5932   1.6377   2.0198   2.1878   2.3694   2.3859
     2.4401   2.5232   2.5949   3.5099   4.4869   5.5756   7.8999  10.1313
    12.1494  14.4243  16.8796  17.4559

     occupation numbers 
     1.0000   1.0000   1.0000   1.0000   1.0000   1.0000   1.0000   1.0000
     1.0000   1.0000   1.0000   1.0000   1.0000   1.0000   1.0000   1.0000
     1.0000   1.0000   1.0000   1.0000   1.0000   1.0000   1.0000   0.0000
     0.0000   0.0000   0.0000   0.0000

          k = 0.0000 0.4811-0.3100 (  1914 PWs)   bands (ev):

  -116.8087-116.6213 -70.9973 -70.9961 -70.9327 -70.8695 -70.7781 -70.7766
   -10.2780   0.9796   1.5470   1.6436   2.0254   2.1866   2.3572   2.4084
     2.4390   2.5248   2.6215   3.4840   4.5085   5.5873   7.8641  10.4826
    11.7243  14.4507  16.8148  17.9966

     occupation numbers 
     1.0000   1.0000   1.0000   1.0000   1.0000   1.0000   1.0000   1.0000
     1.0000   1.0000   1.0000   1.0000   1.0000   1.0000   1.0000   1.0000
     1.0000   1.0000   1.0000   1.0000   1.0000   1.0000   1.0000   0.0000
     0.0000   0.0000   0.0000   0.0000

          k = 0.0000-0.5774 0.0000 (  1906 PWs)   bands (ev):

  -116.8087-116.6213 -70.9974 -70.9961 -70.9326 -70.8694 -70.7783 -70.7766
   -10.2559   1.1088   1.6331   1.8143   1.9845   2.2896   2.4044   2.4057
     2.4573   2.5654   2.5851   2.9271   4.7728   5.4291   8.2651   9.3793
    12.3509  14.7849  16.1450  17.0812

     occupation numbers 
     1.0000   1.0000   1.0000   1.0000   1.0000   1.0000   1.0000   1.0000
     1.0000   1.0000   1.0000   1.0000   1.0000   1.0000   1.0000   1.0000
     1.0000   1.0000   1.0000   1.0000   1.0000   1.0000   1.0000   0.0011
     0.0000   0.0000   0.0000   0.0000

          k = 0.0000-0.5774 0.0775 (  1908 PWs)   bands (ev):

  -116.8087-116.6213 -70.9974 -70.9961 -70.9326 -70.8695 -70.7783 -70.7767
   -10.2545   1.0895   1.6377   1.7763   1.9888   2.2687   2.3984   2.4190
     2.4572   2.5609   2.5921   2.9802   4.7646   5.4406   8.3981   9.1945
    12.5519  14.4420  16.3854  17.0144

     occupation numbers 
     1.0000   1.0000   1.0000   1.0000   1.0000   1.0000   1.0000   1.0000
     1.0000   1.0000   1.0000   1.0000   1.0000   1.0000   1.0000   1.0000
     1.0000   1.0000   1.0000   1.0000   1.0000   1.0000   1.0008   0.0506
     0.0000   0.0000   0.0000   0.0000

          k = 0.0000-0.5774 0.1550 (  1924 PWs)   bands (ev):

  -116.8087-116.6213 -70.9975 -70.9961 -70.9327 -70.8695 -70.7783 -70.7767
   -10.2510   1.0428   1.6494   1.6936   1.9991   2.2379   2.3823   2.4282
     2.4569   2.5515   2.6121   3.1047   4.7474   5.4682   8.5289   9.0578
    12.8350  13.8712  16.8631  16.8867

     occupation numbers 
     1.0000   1.0000   1.0000   1.0000   1.0000   1.0000   1.0000   1.0000
     1.0000   1.0000   1.0000   1.0000   1.0000   1.0000   1.0000   1.0000
     1.0000   1.0000   1.0000   1.0000   1.0000   1.0000   1.0109   0.2997
     0.0000   0.0000   0.0000   0.0000

          k = 0.0000-0.5774 0.2325 (  1924 PWs)   bands (ev):

  -116.8087-116.6213 -70.9975 -70.9962 -70.9326 -70.8695 -70.7783 -70.7767
   -10.2476   0.9962   1.6210   1.6617   2.0099   2.2176   2.3641   2.4269
     2.4567   2.5438   2.6311   3.2277   4.7337   5.4957   8.2687   9.4737
    12.5886  13.7470  16.7233  17.5395

     occupation numbers 
     1.0000   1.0000   1.0000   1.0000   1.0000   1.0000   1.0000   1.0000
     1.0000   1.0000   1.0000   1.0000   1.0000   1.0000   1.0000   1.0000
     1.0000   1.0000   1.0000   1.0000   1.0000   1.0000   1.0000   0.0001
     0.0000   0.0000   0.0000   0.0000

          k = 0.0000-0.5774-0.3100 (  1924 PWs)   bands (ev):

  -116.8087-116.6213 -70.9974 -70.9962 -70.9327 -70.8695 -70.7783 -70.7767
   -10.2462   0.9768   1.5933   1.6670   2.0145   2.2105   2.3559   2.4253
     2.4566   2.5411   2.6382   3.2790   4.7289   5.5070   8.1417   9.7345
    12.3157  13.8044  16.6683  18.0741

     occupation numbers 
     1.0000   1.0000   1.0000   1.0000   1.0000   1.0000   1.0000   1.0000
     1.0000   1.0000   1.0000   1.0000   1.0000   1.0000   1.0000   1.0000
     1.0000   1.0000   1.0000   1.0000   1.0000   1.0000   1.0000   0.0000
     0.0000   0.0000   0.0000   0.0000

          k = 0.0833 0.1443 0.0000 (  1883 PWs)   bands (ev):

  -116.8088-116.6214 -70.9959 -70.9956 -70.9327 -70.8695 -70.7764 -70.7761
   -10.6299   1.2301   1.3051   1.3965   2.0547   2.1901   2.2586   2.2894
     2.3105   2.4235   2.5077   3.9153   4.2102   6.0640   6.3696  11.6715
    12.3363  17.5853  18.0551  20.4457

     occupation numbers 
     1.0000   1.0000   1.0000   1.0000   1.0000   1.0000   1.0000   1.0000
     1.0000   1.0000   1.0000   1.0000   1.0000   1.0000   1.0000   1.0000
     1.0000   1.0000   1.0000   1.0000   1.0000   1.0000   1.0000   0.0000
     0.0000   0.0000   0.0000   0.0000

          k = 0.0833 0.1443 0.0775 (  1892 PWs)   bands (ev):

  -116.8088-116.6214 -70.9959 -70.9956 -70.9328 -70.8696 -70.7765 -70.7761
   -10.6279   1.2169   1.2725   1.3874   2.0670   2.1859   2.2559   2.3008
     2.3198   2.4213   2.5033   3.5112   4.7431   6.1005   6.3742  10.9746
    13.0560  17.6268  18.0658  20.1240

     occupation numbers 
     1.0000   1.0000   1.0000   1.0000   1.0000   1.0000   1.0000   1.0000
     1.0000   1.0000   1.0000   1.0000   1.0000   1.0000   1.0000   1.0000
     1.0000   1.0000   1.0000   1.0000   1.0000   1.0000   1.0000   0.0000
     0.0000   0.0000   0.0000   0.0000

          k = 0.0833 0.1443 0.1550 (  1898 PWs)   bands (ev):

  -116.8088-116.6214 -70.9960 -70.9957 -70.9328 -70.8696 -70.7765 -70.7761
   -10.6229   1.1295   1.2404   1.3754   2.1026   2.1771   2.2496   2.3268
     2.3449   2.4168   2.4901   3.1464   5.3749   6.2772   6.3935  10.0544
    14.0506  17.7163  18.0342  19.4705

     occupation numbers 
     1.0000   1.0000   1.0000   1.0000   1.0000   1.0000   1.0000   1.0000
     1.0000   1.0000   1.0000   1.0000   1.0000   1.0000   1.0000   1.0000
     1.0000   1.0000   1.0000   1.0000   1.0000   1.0000   1.0000   0.0000
     0.0000   0.0000   0.0000   0.0000

          k = 0.0833 0.1443 0.2325 (  1907 PWs)   bands (ev):

  -116.8088-116.6214 -70.9960 -70.9957 -70.9329 -70.8697 -70.7765 -70.7761
   -10.6180   1.0181   1.2310   1.3673   2.1477   2.1704   2.2446   2.3400
     2.3789   2.4248   2.4697   2.9207   5.6913   6.3846   6.8159   9.1885
    15.0764  17.3530  18.0863  18.9237

     occupation numbers 
     1.0000   1.0000   1.0000   1.0000   1.0000   1.0000   1.0000   1.0000
     1.0000   1.0000   1.0000   1.0000   1.0000   1.0000   1.0000   1.0000
     1.0000   1.0000   1.0000   1.0000   1.0000   1.0000   1.0000   0.0557
     0.0000   0.0000   0.0000   0.0000

          k = 0.0833 0.1443-0.3100 (  1900 PWs)   bands (ev):

  -116.8088-116.6214 -70.9959 -70.9956 -70.9329 -70.8697 -70.7765 -70.7761
   -10.6159   0.9717   1.2281   1.3643   2.1621   2.1766   2.2440   2.3358
     2.3991   2.4391   2.4554   2.8384   5.7552   6.3903   7.2339   8.7018
    15.8319  16.6820  18.2549  18.6938

     occupation numbers 
     1.0000   1.0000   1.0000   1.0000   1.0000   1.0000   1.0000   1.0000
     1.0000   1.0000   1.0000   1.0000   1.0000   1.0000   1.0000   1.0000
     1.0000   1.0000   1.0000   1.0000   1.0000   1.0000   1.0000   1.0749
     0.0000   0.0000   0.0000   0.0000

          k = 0.0833 0.2406 0.0000 (  1890 PWs)   bands (ev):

  -116.8087-116.6214 -70.9963 -70.9958 -70.9327 -70.8695 -70.7769 -70.7762
   -10.5327   1.1765   1.3794   1.5078   2.0997   2.2051   2.2572   2.2981
     2.3375   2.3839   2.5158   4.0613   4.4103   5.7545   6.1102  11.8986
    13.0045  15.6141  16.9775  19.2500

     occupation numbers 
     1.0000   1.0000   1.0000   1.0000   1.0000   1.0000   1.0000   1.0000
     1.0000   1.0000   1.0000   1.0000   1.0000   1.0000   1.0000   1.0000
     1.0000   1.0000   1.0000   1.0000   1.0000   1.0000   1.0000   0.0000
     0.0000   0.0000   0.0000   0.0000

          k = 0.0833 0.2406 0.0775 (  1898 PWs)   bands (ev):

  -116.8087-116.6214 -70.9963 -70.9958 -70.9327 -70.8695 -70.7769 -70.7763
   -10.5308   1.1569   1.3612   1.4941   2.1026   2.2078   2.2693   2.3100
     2.3369   2.3818   2.5090   3.7774   4.6888   5.8956   6.1325  11.3735
    13.4934  15.6905  17.0326  18.9671

     occupation numbers 
     1.0000   1.0000   1.0000   1.0000   1.0000   1.0000   1.0000   1.0000
     1.0000   1.0000   1.0000   1.0000   1.0000   1.0000   1.0000   1.0000
     1.0000   1.0000   1.0000   1.0000   1.0000   1.0000   1.0000   0.0000
     0.0000   0.0000   0.0000   0.0000

          k = 0.0833 0.2406 0.1550 (  1903 PWs)   bands (ev):

  -116.8088-116.6214 -70.9963 -70.9958 -70.9328 -70.8696 -70.7769 -70.7763
   -10.5262   1.1197   1.2987   1.4708   2.1142   2.2058   2.2755   2.3310
     2.3592   2.3974   2.4944   3.4455   4.9592   6.0774   6.4252  10.5570
    14.2103  15.9575  17.0910  18.3299

     occupation numbers 
     1.0000   1.0000   1.0000   1.0000   1.0000   1.0000   1.0000   1.0000
     1.0000   1.0000   1.0000   1.0000   1.0000   1.0000   1.0000   1.0000
     1.0000   1.0000   1.0000   1.0000   1.0000   1.0000   1.0000   0.0000
     0.0000   0.0000   0.0000   0.0000

          k = 0.0833 0.2406 0.2325 (  1910 PWs)   bands (ev):

  -116.8088-116.6214 -70.9964 -70.9958 -70.9328 -70.8697 -70.7770 -70.7763
   -10.5217   1.0713   1.2397   1.4588   2.1279   2.2062   2.2614   2.3481
     2.3942   2.4344   2.4798   3.2231   5.0784   6.1089   7.0107   9.8160
    14.7670  16.4026  17.0126  17.8129

     occupation numbers 
     1.0000   1.0000   1.0000   1.0000   1.0000   1.0000   1.0000   1.0000
     1.0000   1.0000   1.0000   1.0000   1.0000   1.0000   1.0000   1.0000
     1.0000   1.0000   1.0000   1.0000   1.0000   1.0000   1.0000   0.0000
     0.0000   0.0000   0.0000   0.0000

          k = 0.0833 0.2406-0.3100 (  1918 PWs)   bands (ev):

  -116.8088-116.6214 -70.9964 -70.9958 -70.9329 -70.8697 -70.7770 -70.7763
   -10.5198   1.0559   1.2097   1.4558   2.1349   2.2067   2.2514   2.3553
     2.3949   2.4617   2.4878   3.1341   5.1155   6.1182   7.3319   9.4584
    15.0889  16.3960  17.0526  17.6808

     occupation numbers 
     1.0000   1.0000   1.0000   1.0000   1.0000   1.0000   1.0000   1.0000
     1.0000   1.0000   1.0000   1.0000   1.0000   1.0000   1.0000   1.0000
     1.0000   1.0000   1.0000   1.0000   1.0000   1.0000   1.0000   0.0001
     0.0000   0.0000   0.0000   0.0000

          k = 0.0833 0.3368 0.0000 (  1911 PWs)   bands (ev):

  -116.8087-116.6213 -70.9968 -70.9960 -70.9327 -70.8695 -70.7775 -70.7765
   -10.4179   1.1422   1.4865   1.6238   2.0693   2.2095   2.2885   2.3224
     2.3536   2.4362   2.5293   4.0015   4.4524   5.6929   6.1364  12.0172
    13.4746  13.9478  16.3581  17.9287

     occupation numbers 
     1.0000   1.0000   1.0000   1.0000   1.0000   1.0000   1.0000   1.0000
     1.0000   1.0000   1.0000   1.0000   1.0000   1.0000   1.0000   1.0000
     1.0000   1.0000   1.0000   1.0000   1.0000   1.0000   1.0000   0.0000
     0.0000   0.0000   0.0000   0.0000

          k = 0.0833 0.3368 0.0775 (  1905 PWs)   bands (ev):

  -116.8087-116.6213 -70.9968 -70.9959 -70.9327 -70.8695 -70.7775 -70.7765
   -10.4162   1.1190   1.4762   1.6091   2.0719   2.2067   2.3030   2.3182
     2.3583   2.4402   2.5219   4.0318   4.3376   5.7252   6.3429  11.6228
    13.4135  14.4511  16.3686  17.7113

     occupation numbers 
     1.0000   1.0000   1.0000   1.0000   1.0000   1.0000   1.0000   1.0000
     1.0000   1.0000   1.0000   1.0000   1.0000   1.0000   1.0000   1.0000
     1.0000   1.0000   1.0000   1.0000   1.0000   1.0000   1.0000   0.0000
     0.0000   0.0000   0.0000   0.0000

          k = 0.0833 0.3368 0.1550 (  1905 PWs)   bands (ev):

  -116.8087-116.6213 -70.9967 -70.9959 -70.9327 -70.8696 -70.7775 -70.7765
   -10.4121   1.0830   1.4286   1.5717   2.0770   2.2019   2.3064   2.3382
     2.3763   2.4622   2.5166   3.8602   4.3658   5.7639   6.8074  11.0235
    13.2770  15.3028  16.4365  17.2477

     occupation numbers 
     1.0000   1.0000   1.0000   1.0000   1.0000   1.0000   1.0000   1.0000
     1.0000   1.0000   1.0000   1.0000   1.0000   1.0000   1.0000   1.0000
     1.0000   1.0000   1.0000   1.0000   1.0000   1.0000   1.0000   0.0000
     0.0000   0.0000   0.0000   0.0000

          k = 0.0833 0.3368 0.2325 (  1915 PWs)   bands (ev):

  -116.8087-116.6213 -70.9968 -70.9960 -70.9328 -70.8696 -70.7775 -70.7765
   -10.4080   1.0515   1.3602   1.5551   2.0880   2.1847   2.3116   2.3511
     2.4056   2.4723   2.5351   3.6832   4.4271   5.7920   7.2877  10.5294
    13.1680  15.9846  16.3546  17.1782

     occupation numbers 
     1.0000   1.0000   1.0000   1.0000   1.0000   1.0000   1.0000   1.0000
     1.0000   1.0000   1.0000   1.0000   1.0000   1.0000   1.0000   1.0000
     1.0000   1.0000   1.0000   1.0000   1.0000   1.0000   1.0000   0.0000
     0.0000   0.0000   0.0000   0.0000

          k = 0.0833 0.3368-0.3100 (  1914 PWs)   bands (ev):

  -116.8087-116.6213 -70.9968 -70.9960 -70.9328 -70.8696 -70.7775 -70.7765
   -10.4063   1.0495   1.3172   1.5520   2.0959   2.1753   2.3097   2.3570
     2.4116   2.4829   2.5587   3.5838   4.4767   5.8038   7.4881  10.3476
    13.1505  16.0163  16.3098  17.5124

     occupation numbers 
     1.0000   1.0000   1.0000   1.0000   1.0000   1.0000   1.0000   1.0000
     1.0000   1.0000   1.0000   1.0000   1.0000   1.0000   1.0000   1.0000
     1.0000   1.0000   1.0000   1.0000   1.0000   1.0000   1.0000   0.0000
     0.0000   0.0000   0.0000   0.0000

          k = 0.0833 0.4330 0.0000 (  1921 PWs)   bands (ev):

  -116.8087-116.6213 -70.9972 -70.9961 -70.9327 -70.8695 -70.7780 -70.7766
   -10.3163   1.1392   1.5813   1.7320   2.0299   2.2322   2.3002   2.3743
     2.3850   2.4986   2.5617   3.5257   4.6184   5.4422   6.9476  11.4360
    12.3488  14.5211  16.1622  16.8235

     occupation numbers 
     1.0000   1.0000   1.0000   1.0000   1.0000   1.0000   1.0000   1.0000
     1.0000   1.0000   1.0000   1.0000   1.0000   1.0000   1.0000   1.0000
     1.0000   1.0000   1.0000   1.0000   1.0000   1.0000   1.0000   0.0000
     0.0000   0.0000   0.0000   0.0000

          k = 0.0833 0.4330 0.0775 (  1917 PWs)   bands (ev):

  -116.8087-116.6213 -70.9972 -70.9961 -70.9327 -70.8695 -70.7780 -70.7766
   -10.3148   1.1148   1.5769   1.7190   2.0339   2.2074   2.3049   2.3805
     2.3866   2.4988   2.5563   3.6173   4.5094   5.4548   7.1196  11.0310
    12.6285  14.6336  15.9454  16.9389

     occupation numbers 
     1.0000   1.0000   1.0000   1.0000   1.0000   1.0000   1.0000   1.0000
     1.0000   1.0000   1.0000   1.0000   1.0000   1.0000   1.0000   1.0000
     1.0000   1.0000   1.0000   1.0000   1.0000   1.0000   1.0000   0.0000
     0.0000   0.0000   0.0000   0.0000

          k = 0.0833 0.4330 0.1550 (  1914 PWs)   bands (ev):

  -116.8087-116.6213 -70.9971 -70.9961 -70.9327 -70.8695 -70.7779 -70.7766
   -10.3111   1.0728   1.5594   1.6547   2.0413   2.1902   2.3265   2.3774
     2.3999   2.5056   2.5690   3.7173   4.3660   5.4855   7.4406  10.7203
    12.5225  14.9068  15.7804  17.0973

     occupation numbers 
     1.0000   1.0000   1.0000   1.0000   1.0000   1.0000   1.0000   1.0000
     1.0000   1.0000   1.0000   1.0000   1.0000   1.0000   1.0000   1.0000
     1.0000   1.0000   1.0000   1.0000   1.0000   1.0000   1.0000   0.0000
     0.0000   0.0000   0.0000   0.0000

          k = 0.0833 0.4330 0.2325 (  1915 PWs)   bands (ev):

  -116.8087-116.6213 -70.9972 -70.9961 -70.9327 -70.8695 -70.7780 -70.7767
   -10.3074   1.0359   1.5062   1.6253   2.0537   2.1735   2.3457   2.3696
     2.4218   2.5061   2.5956   3.7657   4.2821   5.5158   7.6965  10.7409
    12.0771  15.0751  15.6931  17.5319

     occupation numbers 
     1.0000   1.0000   1.0000   1.0000   1.0000   1.0000   1.0000   1.0000
     1.0000   1.0000   1.0000   1.0000   1.0000   1.0000   1.0000   1.0000
     1.0000   1.0000   1.0000   1.0000   1.0000   1.0000   1.0000   0.0000
     0.0000   0.0000   0.0000   0.0000

          k = 0.0833 0.4330-0.3100 (  1918 PWs)   bands (ev):

  -116.8087-116.6213 -70.9971 -70.9961 -70.9327 -70.8695 -70.7779 -70.7767
   -10.3059   1.0281   1.4658   1.6219   2.0620   2.1686   2.3425   2.3731
     2.4336   2.5129   2.6169   3.7048   4.3207   5.5296   7.7487  11.1182
    11.5729  15.0422  15.6991  17.9061

     occupation numbers 
     1.0000   1.0000   1.0000   1.0000   1.0000   1.0000   1.0000   1.0000
     1.0000   1.0000   1.0000   1.0000   1.0000   1.0000   1.0000   1.0000
     1.0000   1.0000   1.0000   1.0000   1.0000   1.0000   1.0000   0.0000
     0.0000   0.0000   0.0000   0.0000

          k = 0.0833 0.5292 0.0000 (  1915 PWs)   bands (ev):

  -116.8087-116.6213 -70.9973 -70.9962 -70.9327 -70.8695 -70.7782 -70.7767
   -10.2566   1.1498   1.6229   1.8066   2.0064   2.2880   2.3450   2.3957
     2.4310   2.5150   2.6429   3.0546   4.7477   5.2803   8.0444   9.8852
    12.4059  14.7014  16.0360  16.4943

     occupation numbers 
     1.0000   1.0000   1.0000   1.0000   1.0000   1.0000   1.0000   1.0000
     1.0000   1.0000   1.0000   1.0000   1.0000   1.0000   1.0000   1.0000
     1.0000   1.0000   1.0000   1.0000   1.0000   1.0000   1.0000   0.0000
     0.0000   0.0000   0.0000   0.0000

          k = 0.0833 0.5292 0.0775 (  1917 PWs)   bands (ev):

  -116.8087-116.6213 -70.9974 -70.9962 -70.9327 -70.8695 -70.7782 -70.7768
   -10.2552   1.1282   1.6227   1.7832   2.0106   2.2556   2.3585   2.4010
     2.4246   2.5131   2.6285   3.1378   4.7184   5.2926   8.1906   9.6445
    12.6465  14.5569  15.6215  16.9469

     occupation numbers 
     1.0000   1.0000   1.0000   1.0000   1.0000   1.0000   1.0000   1.0000
     1.0000   1.0000   1.0000   1.0000   1.0000   1.0000   1.0000   1.0000
     1.0000   1.0000   1.0000   1.0000   1.0000   1.0000   1.0000   0.0000
     0.0000   0.0000   0.0000   0.0000

          k = 0.0833 0.5292 0.1550 (  1916 PWs)   bands (ev):

  -116.8087-116.6213 -70.9973 -70.9962 -70.9327 -70.8695 -70.7782 -70.7767
   -10.2517   1.0823   1.6225   1.7068   2.0219   2.2219   2.3685   2.3959
     2.4321   2.5195   2.6345   3.2529   4.6836   5.3241   8.3584   9.4604
    12.8582  14.1821  15.4452  17.4012

     occupation numbers 
     1.0000   1.0000   1.0000   1.0000   1.0000   1.0000   1.0000   1.0000
     1.0000   1.0000   1.0000   1.0000   1.0000   1.0000   1.0000   1.0000
     1.0000   1.0000   1.0000   1.0000   1.0000   1.0000   1.0003   0.0001
     0.0000   0.0000   0.0000   0.0000

          k = 0.0833 0.5292 0.2325 (  1911 PWs)   bands (ev):

  -116.8087-116.6213 -70.9973 -70.9961 -70.9327 -70.8695 -70.7782 -70.7767
   -10.2483   1.0381   1.5959   1.6625   2.0353   2.2017   2.3465   2.4082
     2.4437   2.5229   2.6502   3.3459   4.6656   5.3560   8.2641   9.7203
    12.5941  14.0682  15.4259  17.7927

     occupation numbers 
     1.0000   1.0000   1.0000   1.0000   1.0000   1.0000   1.0000   1.0000
     1.0000   1.0000   1.0000   1.0000   1.0000   1.0000   1.0000   1.0000
     1.0000   1.0000   1.0000   1.0000   1.0000   1.0000   1.0000   0.0000
     0.0000   0.0000   0.0000   0.0000

          k = 0.0833 0.5292-0.3100 (  1906 PWs)   bands (ev):

  -116.8087-116.6213 -70.9973 -70.9961 -70.9327 -70.8695 -70.7782 -70.7767
   -10.2468   1.0223   1.5670   1.6590   2.0424   2.1968   2.3348   2.4147
     2.4503   2.5256   2.6644   3.3602   4.6753   5.3702   8.1453  10.0118
    12.2998  14.0843  15.4294  17.9782

     occupation numbers 
     1.0000   1.0000   1.0000   1.0000   1.0000   1.0000   1.0000   1.0000
     1.0000   1.0000   1.0000   1.0000   1.0000   1.0000   1.0000   1.0000
     1.0000   1.0000   1.0000   1.0000   1.0000   1.0000   1.0000   0.0000
     0.0000   0.0000   0.0000   0.0000

          k = 0.1667 0.2887 0.0000 (  1899 PWs)   bands (ev):

  -116.8087-116.6213 -70.9966 -70.9959 -70.9327 -70.8695 -70.7773 -70.7764
   -10.4337   1.1966   1.4063   1.6167   2.1164   2.2092   2.2465   2.2967
     2.3585   2.4392   2.5270   4.1162   4.4219   5.5900   6.1087  12.0300
    13.7165  14.8204  15.0509  18.3218

     occupation numbers 
     1.0000   1.0000   1.0000   1.0000   1.0000   1.0000   1.0000   1.0000
     1.0000   1.0000   1.0000   1.0000   1.0000   1.0000   1.0000   1.0000
     1.0000   1.0000   1.0000   1.0000   1.0000   1.0000   1.0000   0.0000
     0.0000   0.0000   0.0000   0.0000

          k = 0.1667 0.2887 0.0775 (  1902 PWs)   bands (ev):

  -116.8087-116.6213 -70.9967 -70.9960 -70.9327 -70.8695 -70.7773 -70.7765
   -10.4320   1.1921   1.3781   1.5972   2.1161   2.2078   2.2561   2.3048
     2.3586   2.4502   2.5260   3.9715   4.4902   5.6318   6.2805  11.6886
    13.8561  14.9511  15.2332  17.9130

     occupation numbers 
     1.0000   1.0000   1.0000   1.0000   1.0000   1.0000   1.0000   1.0000
     1.0000   1.0000   1.0000   1.0000   1.0000   1.0000   1.0000   1.0000
     1.0000   1.0000   1.0000   1.0000   1.0000   1.0000   1.0000   0.0000
     0.0000   0.0000   0.0000   0.0000

          k = 0.1667 0.2887 0.1550 (  1903 PWs)   bands (ev):

  -116.8087-116.6213 -70.9967 -70.9959 -70.9327 -70.8696 -70.7774 -70.7765
   -10.4278   1.1813   1.2980   1.5680   2.1213   2.1995   2.2619   2.3295
     2.3743   2.4668   2.5291   3.7520   4.5578   5.6880   6.7320  11.0575
    13.9796  15.0104  15.9763  17.3149

     occupation numbers 
     1.0000   1.0000   1.0000   1.0000   1.0000   1.0000   1.0000   1.0000
     1.0000   1.0000   1.0000   1.0000   1.0000   1.0000   1.0000   1.0000
     1.0000   1.0000   1.0000   1.0000   1.0000   1.0000   1.0000   0.0000
     0.0000   0.0000   0.0000   0.0000

          k = 0.1667 0.2887 0.2325 (  1906 PWs)   bands (ev):

  -116.8087-116.6213 -70.9966 -70.9959 -70.9328 -70.8696 -70.7773 -70.7765
   -10.4237   1.1693   1.2118   1.5528   2.1349   2.1865   2.2552   2.3438
     2.4072   2.4759   2.5438   3.5916   4.5933   5.7240   7.2337  10.4962
    14.0290  15.0345  16.5993  17.1682

     occupation numbers 
     1.0000   1.0000   1.0000   1.0000   1.0000   1.0000   1.0000   1.0000
     1.0000   1.0000   1.0000   1.0000   1.0000   1.0000   1.0000   1.0000
     1.0000   1.0000   1.0000   1.0000   1.0000   1.0000   1.0000   0.0000
     0.0000   0.0000   0.0000   0.0000

          k = 0.1667 0.2887-0.3100 (  1912 PWs)   bands (ev):

  -116.8087-116.6213 -70.9967 -70.9960 -70.9328 -70.8696 -70.7774 -70.7765
   -10.4219   1.1593   1.1808   1.5486   2.1456   2.1771   2.2507   2.3493
     2.4171   2.4814   2.5545   3.5328   4.6045   5.7368   7.4696  10.2526
    14.0442  15.0405  16.5608  17.5221

     occupation numbers 
     1.0000   1.0000   1.0000   1.0000   1.0000   1.0000   1.0000   1.0000
     1.0000   1.0000   1.0000   1.0000   1.0000   1.0000   1.0000   1.0000
     1.0000   1.0000   1.0000   1.0000   1.0000   1.0000   1.0000   0.0000
     0.0000   0.0000   0.0000   0.0000

          k = 0.1667 0.3849 0.0000 (  1914 PWs)   bands (ev):

  -116.8087-116.6213 -70.9970 -70.9961 -70.9327 -70.8695 -70.7778 -70.7767
   -10.3330   1.2264   1.5001   1.6897   2.0902   2.2226   2.2718   2.3153
     2.3730   2.4968   2.5696   3.8032   4.5231   5.2409   6.7774  12.1241
    12.8159  14.1707  15.1514  17.1132

     occupation numbers 
     1.0000   1.0000   1.0000   1.0000   1.0000   1.0000   1.0000   1.0000
     1.0000   1.0000   1.0000   1.0000   1.0000   1.0000   1.0000   1.0000
     1.0000   1.0000   1.0000   1.0000   1.0000   1.0000   1.0000   0.0000
     0.0000   0.0000   0.0000   0.0000

          k = 0.1667 0.3849 0.0775 (  1915 PWs)   bands (ev):

  -116.8087-116.6213 -70.9970 -70.9962 -70.9327 -70.8695 -70.7778 -70.7767
   -10.3314   1.2105   1.4823   1.6737   2.0922   2.2120   2.2897   2.3107
     2.3762   2.4974   2.5734   3.8598   4.4262   5.2593   6.9355  11.7474
    12.9879  14.2362  15.3073  16.9458

     occupation numbers 
     1.0000   1.0000   1.0000   1.0000   1.0000   1.0000   1.0000   1.0000
     1.0000   1.0000   1.0000   1.0000   1.0000   1.0000   1.0000   1.0000
     1.0000   1.0000   1.0000   1.0000   1.0000   1.0000   1.0000   0.0000
     0.0000   0.0000   0.0000   0.0000

          k = 0.1667 0.3849 0.1550 (  1914 PWs)   bands (ev):

  -116.8087-116.6213 -70.9970 -70.9962 -70.9327 -70.8695 -70.7778 -70.7767
   -10.3277   1.1814   1.4263   1.6369   2.0980   2.1973   2.2955   2.3368
     2.3836   2.5005   2.5904   3.9364   4.2721   5.2984   7.2773  11.3602
    12.8781  14.2043  15.8250  16.8308

     occupation numbers 
     1.0000   1.0000   1.0000   1.0000   1.0000   1.0000   1.0000   1.0000
     1.0000   1.0000   1.0000   1.0000   1.0000   1.0000   1.0000   1.0000
     1.0000   1.0000   1.0000   1.0000   1.0000   1.0000   1.0000   0.0000
     0.0000   0.0000   0.0000   0.0000

          k = 0.1667 0.3849 0.2325 (  1908 PWs)   bands (ev):

  -116.8087-116.6213 -70.9970 -70.9961 -70.9327 -70.8695 -70.7777 -70.7767
   -10.3239   1.1524   1.3602   1.6181   2.1135   2.1759   2.2973   2.3324
     2.4217   2.5046   2.6088   4.0095   4.1375   5.3353   7.5987  11.1623
    12.6312  14.1418  15.8370  17.4654

     occupation numbers 
     1.0000   1.0000   1.0000   1.0000   1.0000   1.0000   1.0000   1.0000
     1.0000   1.0000   1.0000   1.0000   1.0000   1.0000   1.0000   1.0000
     1.0000   1.0000   1.0000   1.0000   1.0000   1.0000   1.0000   0.0000
     0.0000   0.0000   0.0000   0.0000

          k = 0.1667 0.3849-0.3100 (  1908 PWs)   bands (ev):

  -116.8087-116.6213 -70.9970 -70.9961 -70.9327 -70.8695 -70.7777 -70.7767
   -10.3223   1.1470   1.3242   1.6128   2.1310   2.1586   2.2976   2.3257
     2.4388   2.5117   2.6195   3.9466   4.1747   5.3508   7.7151  11.1737
    12.4685  14.0783  15.7806  17.8135

     occupation numbers 
     1.0000   1.0000   1.0000   1.0000   1.0000   1.0000   1.0000   1.0000
     1.0000   1.0000   1.0000   1.0000   1.0000   1.0000   1.0000   1.0000
     1.0000   1.0000   1.0000   1.0000   1.0000   1.0000   1.0000   0.0000
     0.0000   0.0000   0.0000   0.0000

          k = 0.1667 0.4811 0.0000 (  1919 PWs)   bands (ev):

  -116.8087-116.6213 -70.9972 -70.9963 -70.9327 -70.8695 -70.7780 -70.7769
   -10.2581   1.2476   1.6054   1.7616   2.0629   2.2587   2.2922   2.3395
     2.4050   2.5074   2.6645   3.3274   4.6257   5.0169   7.8001  10.9154
    12.4894  13.9052  15.8058  16.2823

     occupation numbers 
     1.0000   1.0000   1.0000   1.0000   1.0000   1.0000   1.0000   1.0000
     1.0000   1.0000   1.0000   1.0000   1.0000   1.0000   1.0000   1.0000
     1.0000   1.0000   1.0000   1.0000   1.0000   1.0000   1.0000   0.0000
     0.0000   0.0000   0.0000   0.0000

          k = 0.1667 0.4811 0.0775 (  1912 PWs)   bands (ev):

  -116.8087-116.6213 -70.9972 -70.9963 -70.9327 -70.8695 -70.7780 -70.7769
   -10.2566   1.2300   1.5888   1.7478   2.0665   2.2340   2.3073   2.3467
     2.3964   2.5075   2.6611   3.3948   4.5956   5.0217   7.9153  10.6464
    12.7505  13.8901  15.3019  16.7664

     occupation numbers 
     1.0000   1.0000   1.0000   1.0000   1.0000   1.0000   1.0000   1.0000
     1.0000   1.0000   1.0000   1.0000   1.0000   1.0000   1.0000   1.0000
     1.0000   1.0000   1.0000   1.0000   1.0000   1.0000   1.0000   0.0000
     0.0000   0.0000   0.0000   0.0000

          k = 0.1667 0.4811 0.1550 (  1913 PWs)   bands (ev):

  -116.8087-116.6213 -70.9972 -70.9963 -70.9327 -70.8695 -70.7780 -70.7769
   -10.2532   1.1926   1.5537   1.6921   2.0774   2.2068   2.3323   2.3567
     2.3901   2.5106   2.6728   3.4899   4.5564   5.0455   8.0964  10.4375
    12.8414  13.7967  14.9788  17.2958

     occupation numbers 
     1.0000   1.0000   1.0000   1.0000   1.0000   1.0000   1.0000   1.0000
     1.0000   1.0000   1.0000   1.0000   1.0000   1.0000   1.0000   1.0000
[...]
     4.1746   4.2535   4.5147   5.1541   6.5830   8.1937   8.5227  13.8248
    15.2405  17.7421  19.0847  20.1742

     occupation numbers 
     1.0000   1.0000   1.0000   1.0000   1.0000   1.0000   1.0000   1.0000
     1.0000   1.0000   1.0000   1.0000   1.0000   1.0000   1.0000   1.0000
     1.0000   1.0000   1.0000   1.0000   1.0000   1.0000   1.0000   0.0000
     0.0000   0.0000   0.0000   0.0000

          k =-0.0867-0.3505 0.2489 (  1645 PWs)   bands (ev):

  -115.2913-114.7079 -69.4762 -69.4749 -69.4105 -68.9008 -68.8768 -68.8753
    -8.0020   2.7106   3.1571   3.5155   3.6213   3.8163   3.8835   4.0124
     4.2467   4.3093   4.5076   4.9476   6.6531   8.2749   9.0908  13.3000
    15.0254  17.8212  19.3469  20.4413

     occupation numbers 
     1.0000   1.0000   1.0000   1.0000   1.0000   1.0000   1.0000   1.0000
     1.0000   1.0000   1.0000   1.0000   1.0000   1.0000   1.0000   1.0000
     1.0000   1.0000   1.0000   1.0000   1.0000   1.0000   1.0000   0.0000
     0.0000   0.0000   0.0000   0.0000

          k =-0.0867-0.4506 0.0830 (  1640 PWs)   bands (ev):

  -115.2913-114.7078 -69.4768 -69.4751 -69.4104 -68.9007 -68.8775 -68.8755
    -7.8980   3.1589   3.3080   3.4416   3.5303   3.7838   3.9312   4.1076
     4.2487   4.3588   4.5598   5.3076   6.5266   7.8890   8.4890  12.9943
    15.0391  17.4662  18.6276  19.6656

     occupation numbers 
     1.0000   1.0000   1.0000   1.0000   1.0000   1.0000   1.0000   1.0000
     1.0000   1.0000   1.0000   1.0000   1.0000   1.0000   1.0000   1.0000
     1.0000   1.0000   1.0000   1.0000   1.0000   1.0000   1.0000   0.0000
     0.0000   0.0000   0.0000   0.0000

          k =-0.0867-0.4506 0.1659 (  1644 PWs)   bands (ev):

  -115.2913-114.7079 -69.4769 -69.4751 -69.4105 -68.9007 -68.8775 -68.8755
    -7.8871   2.9788   3.1849   3.4590   3.5624   3.8835   3.9314   4.0480
     4.3082   4.4073   4.5621   5.2875   6.3834   7.9957   8.9187  12.8075
    14.9034  17.3714  18.2865  20.2420

     occupation numbers 
     1.0000   1.0000   1.0000   1.0000   1.0000   1.0000   1.0000   1.0000
     1.0000   1.0000   1.0000   1.0000   1.0000   1.0000   1.0000   1.0000
     1.0000   1.0000   1.0000   1.0000   1.0000   1.0000   1.0000   0.0000
     0.0000   0.0000   0.0000   0.0000

          k =-0.0867-0.4506 0.2489 (  1644 PWs)   bands (ev):

  -115.2913-114.7079 -69.4768 -69.4751 -69.4105 -68.9007 -68.8775 -68.8755
    -7.8761   2.7876   3.1352   3.4677   3.6327   3.8776   3.9102   4.0351
     4.3036   4.4747   4.5623   5.3464   6.2859   8.0701   9.2502  12.8645
    14.4560  17.3195  18.1605  20.8391

     occupation numbers 
     1.0000   1.0000   1.0000   1.0000   1.0000   1.0000   1.0000   1.0000
     1.0000   1.0000   1.0000   1.0000   1.0000   1.0000   1.0000   1.0000
     1.0000   1.0000   1.0000   1.0000   1.0000   1.0000   1.0000   0.0000
     0.0000   0.0000   0.0000   0.0000

          k =-0.0867-0.5507 0.0830 (  1642 PWs)   bands (ev):

  -115.2913-114.7078 -69.4772 -69.4752 -69.4104 -68.9006 -68.8779 -68.8756
    -7.8219   3.1551   3.2906   3.4184   3.5157   3.7973   3.9830   4.1643
     4.3450   4.4859   4.5924   5.0893   6.6076   7.7793   9.4496  11.2379
    15.3811  17.3094  18.0151  19.8934

     occupation numbers 
     1.0000   1.0000   1.0000   1.0000   1.0000   1.0000   1.0000   1.0000
     1.0000   1.0000   1.0000   1.0000   1.0000   1.0000   1.0000   1.0000
     1.0000   1.0000   1.0000   1.0000   1.0000   1.0000   1.0000   0.0000
     0.0000   0.0000   0.0000   0.0000

          k =-0.0867-0.5507 0.1659 (  1640 PWs)   bands (ev):

  -115.2913-114.7078 -69.4772 -69.4752 -69.4104 -68.9006 -68.8779 -68.8756
    -7.8118   2.9694   3.1965   3.4367   3.5486   3.8918   3.9883   4.0793
     4.3718   4.4998   4.5919   5.2285   6.5441   7.8670   9.5166  11.2630
    15.6544  17.0267  17.3717  20.5772

     occupation numbers 
     1.0000   1.0000   1.0000   1.0000   1.0000   1.0000   1.0000   1.0000
     1.0000   1.0000   1.0000   1.0000   1.0000   1.0000   1.0000   1.0000
     1.0000   1.0000   1.0000   1.0000   1.0000   1.0000   1.0000   0.0000
     0.0000   0.0000   0.0000   0.0000

          k =-0.0867-0.5507 0.2489 (  1643 PWs)   bands (ev):

  -115.2913-114.7078 -69.4772 -69.4752 -69.4104 -68.9006 -68.8779 -68.8756
    -7.8016   2.7973   3.1450   3.4438   3.6290   3.8848   3.9614   4.0459
     4.3517   4.5258   4.5888   5.4459   6.4776   7.9480   9.3418  11.6436
    15.4254  16.8722  17.1998  20.9823

     occupation numbers 
     1.0000   1.0000   1.0000   1.0000   1.0000   1.0000   1.0000   1.0000
     1.0000   1.0000   1.0000   1.0000   1.0000   1.0000   1.0000   1.0000
     1.0000   1.0000   1.0000   1.0000   1.0000   1.0000   1.0000   0.0000
     0.0000   0.0000   0.0000   0.0000

          k =-0.1734-0.4005 0.0830 (  1652 PWs)   bands (ev):

  -115.2913-114.7079 -69.4766 -69.4753 -69.4105 -68.9007 -68.8772 -68.8757
    -7.9192   3.2099   3.3248   3.4810   3.5300   3.7471   3.8879   4.0549
     4.2111   4.2751   4.5600   5.5342   6.5469   7.5846   8.4045  14.2395
    14.9287  16.1777  18.8594  19.7331

     occupation numbers 
     1.0000   1.0000   1.0000   1.0000   1.0000   1.0000   1.0000   1.0000
     1.0000   1.0000   1.0000   1.0000   1.0000   1.0000   1.0000   1.0000
     1.0000   1.0000   1.0000   1.0000   1.0000   1.0000   1.0000   0.0000
     0.0000   0.0000   0.0000   0.0000

          k =-0.1734-0.4005 0.1659 (  1653 PWs)   bands (ev):

  -115.2913-114.7079 -69.4766 -69.4753 -69.4105 -68.9007 -68.8772 -68.8757
    -7.9081   3.0160   3.2117   3.4993   3.5425   3.8112   3.9119   4.0296
     4.2416   4.3385   4.5613   5.4771   6.4112   7.7446   8.8625  13.8794
    14.8085  16.0150  19.0471  20.1007

     occupation numbers 
     1.0000   1.0000   1.0000   1.0000   1.0000   1.0000   1.0000   1.0000
     1.0000   1.0000   1.0000   1.0000   1.0000   1.0000   1.0000   1.0000
     1.0000   1.0000   1.0000   1.0000   1.0000   1.0000   1.0000   0.0000
     0.0000   0.0000   0.0000   0.0000

          k =-0.1734-0.4005 0.2489 (  1645 PWs)   bands (ev):

  -115.2913-114.7079 -69.4766 -69.4753 -69.4105 -68.9007 -68.8772 -68.8757
    -7.8968   2.8141   3.1623   3.5268   3.5871   3.8164   3.8572   4.0571
     4.2532   4.4192   4.5603   5.4176   6.3633   7.8475   9.2828  13.8083
    14.4652  15.7892  18.9147  20.9213

     occupation numbers 
     1.0000   1.0000   1.0000   1.0000   1.0000   1.0000   1.0000   1.0000
     1.0000   1.0000   1.0000   1.0000   1.0000   1.0000   1.0000   1.0000
     1.0000   1.0000   1.0000   1.0000   1.0000   1.0000   1.0000   0.0000
     0.0000   0.0000   0.0000   0.0000

          k =-0.1734-0.5007 0.0830 (  1646 PWs)   bands (ev):

  -115.2913-114.7078 -69.4769 -69.4755 -69.4104 -68.9007 -68.8776 -68.8760
    -7.8239   3.1923   3.3146   3.4821   3.5228   3.8007   3.9131   4.1433
     4.3192   4.3708   4.6069   5.3297   6.6030   7.3951   9.2431  12.3892
    15.1139  15.9924  18.3770  19.8944

     occupation numbers 
     1.0000   1.0000   1.0000   1.0000   1.0000   1.0000   1.0000   1.0000
     1.0000   1.0000   1.0000   1.0000   1.0000   1.0000   1.0000   1.0000
     1.0000   1.0000   1.0000   1.0000   1.0000   1.0000   1.0000   0.0000
     0.0000   0.0000   0.0000   0.0000

          k =-0.1734-0.5007 0.1659 (  1645 PWs)   bands (ev):

  -115.2913-114.7078 -69.4770 -69.4755 -69.4104 -68.9006 -68.8776 -68.8760
    -7.8137   3.0393   3.2113   3.4942   3.5086   3.8671   3.9429   4.0725
     4.3266   4.4393   4.6127   5.4353   6.4964   7.5118   9.4499  12.2919
    15.0147  15.9634  17.9370  20.8207

     occupation numbers 
     1.0000   1.0000   1.0000   1.0000   1.0000   1.0000   1.0000   1.0000
     1.0000   1.0000   1.0000   1.0000   1.0000   1.0000   1.0000   1.0000
     1.0000   1.0000   1.0000   1.0000   1.0000   1.0000   1.0000   0.0000
     0.0000   0.0000   0.0000   0.0000

          k =-0.1734-0.5007 0.2489 (  1642 PWs)   bands (ev):

  -115.2913-114.7078 -69.4769 -69.4755 -69.4104 -68.9006 -68.8776 -68.8760
    -7.8035   2.8575   3.1756   3.5056   3.5634   3.8325   3.8991   4.0932
     4.3163   4.4854   4.6118   5.6190   6.3824   7.6144   9.5266  12.4130
    14.9276  15.6682  17.7963  20.6923

     occupation numbers 
     1.0000   1.0000   1.0000   1.0000   1.0000   1.0000   1.0000   1.0000
     1.0000   1.0000   1.0000   1.0000   1.0000   1.0000   1.0000   1.0000
     1.0000   1.0000   1.0000   1.0000   1.0000   1.0000   1.0000   0.0000
     0.0000   0.0000   0.0000   0.0000

          k =-0.2602-0.5507 0.0830 (  1652 PWs)   bands (ev):

  -115.2913-114.7078 -69.4768 -69.4760 -69.4104 -68.9007 -68.8774 -68.8765
    -7.7699   3.1781   3.3412   3.5072   3.5937   3.7645   3.9875   4.1506
     4.2993   4.4266   4.6489   5.3530   6.5809   6.9888  10.3020  11.9914
    13.7284  16.1903  17.7689  20.3742

     occupation numbers 
     1.0000   1.0000   1.0000   1.0000   1.0000   1.0000   1.0000   1.0000
     1.0000   1.0000   1.0000   1.0000   1.0000   1.0000   1.0000   1.0000
     1.0000   1.0000   1.0000   1.0000   1.0000   1.0000   1.0253   0.0000
     0.0000   0.0000   0.0000   0.0000

          k =-0.2602-0.5507 0.1659 (  1645 PWs)   bands (ev):

  -115.2912-114.7078 -69.4768 -69.4760 -69.4104 -68.9006 -68.8774 -68.8765
    -7.7602   3.0949   3.2331   3.4454   3.5970   3.7898   3.9718   4.1392
     4.3123   4.4580   4.6575   5.4959   6.6397   7.0519  10.2976  11.9891
    13.4764  16.4415  17.7026  20.0178

     occupation numbers 
     1.0000   1.0000   1.0000   1.0000   1.0000   1.0000   1.0000   1.0000
     1.0000   1.0000   1.0000   1.0000   1.0000   1.0000   1.0000   1.0000
     1.0000   1.0000   1.0000   1.0000   1.0000   1.0000   1.0238   0.0000
     0.0000   0.0000   0.0000   0.0000

          k =-0.2602-0.5507 0.2489 (  1637 PWs)   bands (ev):

  -115.2912-114.7078 -69.4768 -69.4760 -69.4104 -68.9006 -68.8774 -68.8765
    -7.7504   2.9157   3.2560   3.4514   3.5960   3.7619   3.8677   4.1976
     4.3133   4.4790   4.6668   5.6628   6.6536   7.1587  10.1189  12.1343
    13.4186  16.4390  17.6344  19.4416

     occupation numbers 
     1.0000   1.0000   1.0000   1.0000   1.0000   1.0000   1.0000   1.0000
     1.0000   1.0000   1.0000   1.0000   1.0000   1.0000   1.0000   1.0000
     1.0000   1.0000   1.0000   1.0000   1.0000   1.0000   1.0009   0.0000
     0.0000   0.0000   0.0000   0.0000

     the Fermi energy is    10.7429 ev

!    total energy              =    -964.80229228 Ry
     estimated scf accuracy    <          1.0E-11 Ry
     smearing contrib. (-TS)   =       0.00004645 Ry
     internal energy E=F+TS    =    -964.80233873 Ry

     The total energy is F=E-TS. E is the sum of the following terms:
     one-electron contribution =    -785.28121474 Ry
     hartree contribution      =     409.44324551 Ry
     xc contribution           =     -91.85440002 Ry
     ewald contribution        =    -487.59065901 Ry
     one-center paw contrib.   =      -9.51931047 Ry
      -> PAW hartree energy AE =      26.26972801 Ry
      -> PAW hartree energy PS =     -26.14744997 Ry
      -> PAW xc energy AE      =     -16.69229098 Ry
      -> PAW xc energy PS      =       7.05070246 Ry
      -> total E_H with PAW    =     409.56552355 Ry
      -> total E_XC with PAW   =    -101.49598853 Ry

     convergence has been achieved in  12 iterations

     Forces acting on atoms (cartesian axes, Ry/au):

     atom    1 type  2   force =    -0.00000000   -0.00000000   -0.00001656
     atom    2 type  2   force =     0.00000000    0.00000000    0.00001030
     atom    3 type  1   force =     0.00000000   -0.00000000    0.00000625
     The non-local contrib.  to forces
     atom    1 type  2   force =     0.00000000   -0.00000000   -0.26484129
     atom    2 type  2   force =     0.00000000    0.00000000    0.29135098
     atom    3 type  1   force =    -0.00000000    0.00000000   -0.04116773
     The ionic contribution  to forces
     atom    1 type  2   force =    -0.00000017    0.00000010   11.60560484
     atom    2 type  2   force =     0.00000054   -0.00000031   -6.74267262
     atom    3 type  1   force =    -0.00000037    0.00000021   -4.86293222
     The local contribution  to forces
     atom    1 type  2   force =    -0.00001870    0.00001080  -11.34078911
     atom    2 type  2   force =     0.00001845   -0.00001065    6.45133664
     atom    3 type  1   force =    -0.00000114    0.00000066    4.90336589
     The core correction contribution to forces
     atom    1 type  2   force =     0.00000000    0.00000000    0.00000000
     atom    2 type  2   force =     0.00000000    0.00000000    0.00000000
     atom    3 type  1   force =    -0.00000000    0.00000000    0.00074337
     The Hubbard contrib.    to forces
     atom    1 type  2   force =     0.00000000    0.00000000    0.00000000
     atom    2 type  2   force =     0.00000000    0.00000000    0.00000000
     atom    3 type  1   force =     0.00000000    0.00000000    0.00000000
     The SCF correction term to forces
     atom    1 type  2   force =    -0.00000000    0.00000000    0.00000760
     atom    2 type  2   force =     0.00000000   -0.00000000   -0.00000610
     atom    3 type  1   force =    -0.00000000    0.00000000   -0.00000447

     Total force =     0.000020     Total SCF correction =     0.000011
     SCF correction compared to forces is large: reduce conv_thr to get better values


     Computing stress (Cartesian axis) and pressure

          total   stress  (Ry/bohr**3)                   (kbar)     P=       -3.78
  -0.00002406  -0.00000000  -0.00000000           -3.54       -0.00       -0.00
  -0.00000000  -0.00002406   0.00000000           -0.00       -3.54        0.00
  -0.00000000   0.00000000  -0.00002887           -0.00        0.00       -4.25

     kinetic stress (kbar)  34655.57      0.00      0.00
                                0.00  34655.57     -0.00
                               -0.00      0.00  34381.26

     local   stress (kbar)   1277.79     -0.00     -0.00
                               -0.00   1277.79      0.00
                               -0.00      0.00 -11825.70

     nonloc. stress (kbar)  -1968.89      0.00     -0.00
                                0.00  -1968.89      0.00
                               -0.00      0.00  -1868.09

     hartree stress (kbar)  71161.40      0.00      0.00
                                0.00  71161.40     -0.00
                                0.00     -0.00  75959.68

     exc-cor stress (kbar) -15433.61      0.00      0.00
                                0.00 -15433.61     -0.00
                                0.00     -0.00 -15419.02

     corecor stress (kbar)   -226.77     -0.00     -0.00
                               -0.00   -226.77      0.00
                               -0.00      0.00   -226.02

     ewald   stress (kbar) -89469.04      0.00      0.00
                                0.00 -89469.04     -0.00
                                0.00     -0.00 -81006.36

     hubbard stress (kbar)      0.00      0.00      0.00
                                0.00      0.00      0.00
                                0.00      0.00      0.00

     DFT-D   stress (kbar)      0.00      0.00      0.00
                                0.00      0.00      0.00
                                0.00      0.00      0.00

     XDM     stress (kbar)      0.00      0.00      0.00
                                0.00      0.00      0.00
                                0.00      0.00      0.00

     dft-nl  stress (kbar)      0.00      0.00      0.00
                                0.00      0.00      0.00
                                0.00      0.00      0.00

     TS-vdW  stress (kbar)      0.00      0.00      0.00
                                0.00      0.00      0.00
                                0.00      0.00      0.00

     MDB     stress (kbar)      0.00      0.00      0.00
                                0.00      0.00      0.00
                                0.00      0.00      0.00

     3D-RISM stress (kbar)      0.00      0.00      0.00
                                0.00      0.00      0.00
                                0.00      0.00      0.00


     Writing all to output data dir ./temp_hexag/aiida.save/ :
     XML data file, charge density, pseudopotentials, collected wavefunctions

     init_run     :    382.25s CPU     17.22s WALL (       2 calls)
     electrons    :  69965.70s CPU   3229.94s WALL (      15 calls)
     update_pot   :     11.35s CPU      0.68s WALL (      13 calls)
     forces       :   1123.63s CPU     48.83s WALL (      15 calls)
     stress       :    904.00s CPU     47.24s WALL (      15 calls)

     Called by init_run:
     wfcinit      :    374.47s CPU     16.29s WALL (       2 calls)
     wfcinit:atom :      3.27s CPU      0.19s WALL (     262 calls)
     wfcinit:wfcr :    356.17s CPU     15.34s WALL (     262 calls)
     potinit      :      2.77s CPU      0.15s WALL (       2 calls)
     hinit0       :      2.04s CPU      0.52s WALL (       2 calls)

     Called by electrons:
     c_bands      :  60118.42s CPU   2797.52s WALL (     111 calls)
     sum_band     :   9635.68s CPU    415.44s WALL (     111 calls)
     v_of_rho     :     62.23s CPU      2.62s WALL (     121 calls)
     v_h          :      9.42s CPU      0.41s WALL (     121 calls)
     v_xc         :     64.14s CPU      2.71s WALL (     151 calls)
     newd         :    126.76s CPU     12.72s WALL (     121 calls)
     PAW_pot      :     39.81s CPU      1.80s WALL (     134 calls)
     mix_rho      :      6.81s CPU      0.52s WALL (     111 calls)

     Called by c_bands:
     init_us_2    :    482.00s CPU     24.74s WALL (   34977 calls)
     cegterg      :  58946.50s CPU   2746.19s WALL (   14541 calls)

     Called by sum_band:
     sum_band:wei :      3.96s CPU      0.19s WALL (     111 calls)
     sum_band:loo :   9573.95s CPU    402.19s WALL (     111 calls)
     sum_band:buf :     32.61s CPU      1.23s WALL (   14541 calls)
     sum_band:ini :    193.94s CPU      8.47s WALL (   14541 calls)
     sum_band:cal :   1360.71s CPU     55.97s WALL (   16244 calls)
     sum_band:bec :    375.47s CPU     15.77s WALL (   16244 calls)
     addusdens    :     52.19s CPU     12.09s WALL (     111 calls)
                                        0.00s GPU  (     111 calls)
     addusd:skk   :      0.06s CPU      0.03s WALL (     222 calls)
                                        0.00s GPU  (     222 calls)

     Called by *egterg:
     cdiaghg      :    854.75s CPU     36.09s WALL (   49354 calls)
     cegterg:over :   4198.87s CPU    179.17s WALL (   37171 calls)
     cegterg:upda :   1519.24s CPU    123.90s WALL (   37171 calls)
     cegterg:last :   2022.22s CPU    204.58s WALL (   33273 calls)
     h_psi        :  45191.61s CPU   1944.08s WALL (   51974 calls)
     s_psi        :   2663.81s CPU    143.22s WALL (   51974 calls)
     g_psi        :    377.02s CPU     20.55s WALL (   37171 calls)

     Called by h_psi:
     h_psi:calbec :   3109.95s CPU    130.95s WALL (   51974 calls)
     vloc_psi     :  37411.51s CPU   1649.31s WALL (   51974 calls)
     add_vuspsi   :   4159.52s CPU    139.63s WALL (   51974 calls)

     General routines
     calbec       :   5286.37s CPU    221.00s WALL (   78043 calls)
     fft          :     60.78s CPU      2.71s WALL (    1936 calls)
     ffts         :      1.41s CPU      0.10s WALL (     232 calls)
     fftw         :  14728.52s CPU    669.70s WALL ( 2543190 calls)
     interpolate  :      5.71s CPU      0.25s WALL (     121 calls)

     Parallel routines

     PAW routines
     PAW_pot      :     39.81s CPU      1.80s WALL (     134 calls)
     PAW_symme    :      0.00s CPU      0.00s WALL (     245 calls)

     PWSCF        :     20h11m CPU  55m58.28s WALL


   This run was terminated on:  17: 8: 6   9Jun2024            

=------------------------------------------------------------------------------=
   JOB DONE.
=------------------------------------------------------------------------------=
