
     Program PWSCF v.7.3.1 starts on 12Jun2024 at  0: 6:26 

     This program is part of the open-source Quantum ESPRESSO suite
     for quantum simulation of materials; please cite
         "P. Giannozzi et al., J. Phys.:Condens. Matter 21 395502 (2009);
         "P. Giannozzi et al., J. Phys.:Condens. Matter 29 465901 (2017);
         "P. Giannozzi et al., J. Chem. Phys. 152 154105 (2020);
          URL http://www.quantum-espresso.org", 
     in publications or presentations arising from this work. More details at
     http://www.quantum-espresso.org/quote

     Parallel version (MPI & OpenMP), running on      24 processor cores
     Number of MPI processes:                 1
     Threads/MPI process:                    24

     MPI processes distributed on     1 nodes
     4757 MiB available memory on the printing compute node when the environment starts

     Waiting for input...
     Reading input from standard input

     Current dimensions of program PWSCF are:
     Max number of different atomic species (ntypx) = 10
     Max number of k-points (npk) =  40000
     Max angular momentum in pseudopotentials (lmaxx) =  4
     file O.pbe-n-kjpaw_psl.0.1.UPF: wavefunction(s)  2P renormalized
     Message from routine setup:
     using ibrav=0 with symmetry is DISCOURAGED, use correct ibrav instead

     Subspace diagonalization in iterative solution of the eigenvalue problem:
     a serial algorithm will be used


     G-vector sticks info
     --------------------
     sticks:   dense  smooth     PW     G-vecs:    dense   smooth      PW
     Sum         913     451    139                35867    12635    2189

     Using Slab Decomposition



     bravais-lattice index     =            0
     lattice parameter (alat)  =       5.7506  a.u.
     unit-cell volume          =     265.6638 (a.u.)^3
     number of atoms/cell      =            4
     number of atomic types    =            2
     number of electrons       =        52.00
     number of Kohn-Sham states=           31
     kinetic-energy cutoff     =      50.0000  Ry
     charge density cutoff     =     400.0000  Ry
     scf convergence threshold =      2.0E-08
     mixing beta               =       0.4000
     number of iterations used =            8  plain     mixing
     Exchange-correlation= SLA  PW   PBE  PBE
                           (   1   4   3   4   0   0   0)

     celldm(1)=   5.750644  celldm(2)=   0.000000  celldm(3)=   0.000000
     celldm(4)=   0.000000  celldm(5)=   0.000000  celldm(6)=   0.000000

     crystal axes: (cart. coord. in units of alat)
               a(1) = (   1.000000   0.000000   0.000000 )  
               a(2) = (  -0.500000   0.866025   0.000000 )  
               a(3) = (   0.000000   0.000000   1.613066 )  

     reciprocal axes: (cart. coord. in units 2 pi/alat)
               b(1) = (  1.000000  0.577350 -0.000000 )  
               b(2) = (  0.000000  1.154701  0.000000 )  
               b(3) = (  0.000000 -0.000000  0.619937 )  


     PseudoPot. # 1 for O  read from file:
     ../SSSP_1.3.0_PBE_efficiency/O.pbe-n-kjpaw_psl.0.1.UPF
     MD5 check sum: 0234752ac141de4415c5fc33072bef88
     Pseudo is Projector augmented-wave + core cor, Zval =  6.0
     Generated using "atomic" code by A. Dal Corso  v.5.0.99 svn rev. 10869
     Shape of augmentation charge: BESSEL
     Using radial grid of 1095 points,  4 beta functions with: 
                l(1) =   0
                l(2) =   0
                l(3) =   1
                l(4) =   1
     Q(r) pseudized with 0 coefficients 


     PseudoPot. # 2 for Zn read from file:
     ../SSSP_1.3.0_PBE_efficiency/Zn_pbe_v1.uspp.F.UPF
     MD5 check sum: df62231357ef9e81f77b2b3087fa5675
     Pseudo is Ultrasoft, Zval = 20.0
     Generated by new atomic code, or converted to UPF format
     Using radial grid of  943 points,  6 beta functions with: 
                l(1) =   0
                l(2) =   0
                l(3) =   1
                l(4) =   1
                l(5) =   2
                l(6) =   2
     Q(r) pseudized with  8 coefficients,  rinner =    1.100   1.100   1.100
                                                       1.100   1.100

     atomic species   valence    mass     pseudopotential
     O                 6.00    15.99940     O ( 1.00)
     Zn               20.00    65.38000     Zn( 1.00)

     12 Sym. Ops. (no inversion) found ( 6 have fractional translation)


                                    s                        frac. trans.

      isym =  1     identity                                     

 cryst.   s( 1) = (     1          0          0      )
                  (     0          1          0      )
                  (     0          0          1      )

 cart.    s( 1) = (  1.0000000  0.0000000  0.0000000 )
                  (  0.0000000  1.0000000  0.0000000 )
                  (  0.0000000  0.0000000  1.0000000 )


      isym =  2     180 deg rotation - cart. axis [0,0,1]        

 cryst.   s( 2) = (    -1          0          0      )    f =(  0.0000000 )
                  (     0         -1          0      )       (  0.0000000 )
                  (     0          0          1      )       ( -0.5000000 )

 cart.    s( 2) = ( -1.0000000  0.0000000  0.0000000 )    f =(  0.0000000 )
                  (  0.0000000 -1.0000000  0.0000000 )       (  0.0000000 )
                  (  0.0000000  0.0000000  1.0000000 )       ( -0.8065331 )


      isym =  3      60 deg rotation - cryst. axis [0,0,1]       

 cryst.   s( 3) = (     1          1          0      )    f =( -0.0000000 )
                  (    -1          0          0      )       (  0.0000000 )
                  (     0          0          1      )       ( -0.5000000 )

 cart.    s( 3) = (  0.5000000 -0.8660254  0.0000000 )    f =( -0.0000000 )
                  (  0.8660254  0.5000000  0.0000000 )       (  0.0000000 )
                  (  0.0000000  0.0000000  1.0000000 )       ( -0.8065331 )


      isym =  4      60 deg rotation - cryst. axis [0,0,-1]      

 cryst.   s( 4) = (     0         -1          0      )    f =(  0.0000000 )
                  (     1          1          0      )       (  0.0000000 )
                  (     0          0          1      )       ( -0.5000000 )

 cart.    s( 4) = (  0.5000000  0.8660254  0.0000000 )    f =( -0.0000000 )
                  ( -0.8660254  0.5000000  0.0000000 )       (  0.0000000 )
                  (  0.0000000  0.0000000  1.0000000 )       ( -0.8065331 )


      isym =  5     120 deg rotation - cryst. axis [0,0,1]       

 cryst.   s( 5) = (     0          1          0      )
                  (    -1         -1          0      )
                  (     0          0          1      )

 cart.    s( 5) = ( -0.5000000 -0.8660254  0.0000000 )
                  (  0.8660254 -0.5000000  0.0000000 )
                  (  0.0000000  0.0000000  1.0000000 )


      isym =  6     120 deg rotation - cryst. axis [0,0,-1]      

 cryst.   s( 6) = (    -1         -1          0      )
                  (     1          0          0      )
                  (     0          0          1      )

 cart.    s( 6) = ( -0.5000000  0.8660254  0.0000000 )
                  ( -0.8660254 -0.5000000  0.0000000 )
                  (  0.0000000  0.0000000  1.0000000 )


      isym =  7     inv. 180 deg rotation - cart. axis [0,1,0]   

 cryst.   s( 7) = (     1          0          0      )    f =( -0.0000000 )
                  (    -1         -1          0      )       (  0.0000000 )
                  (     0          0          1      )       ( -0.5000000 )

 cart.    s( 7) = (  1.0000000  0.0000000  0.0000000 )    f =( -0.0000000 )
                  (  0.0000000 -1.0000000  0.0000000 )       (  0.0000000 )
                  (  0.0000000  0.0000000  1.0000000 )       ( -0.8065331 )


      isym =  8     inv. 180 deg rotation - cart. axis [1,0,0]   

 cryst.   s( 8) = (    -1          0          0      )
                  (     1          1          0      )
                  (     0          0          1      )

 cart.    s( 8) = ( -1.0000000  0.0000000  0.0000000 )
                  (  0.0000000  1.0000000  0.0000000 )
                  (  0.0000000  0.0000000  1.0000000 )


      isym =  9     inv. 180 deg rotation - cryst. axis [1,-1,0] 

 cryst.   s( 9) = (     0          1          0      )    f =(  0.0000000 )
                  (     1          0          0      )       (  0.0000000 )
                  (     0          0          1      )       ( -0.5000000 )

 cart.    s( 9) = ( -0.5000000  0.8660254  0.0000000 )    f =(  0.0000000 )
                  (  0.8660254  0.5000000  0.0000000 )       (  0.0000000 )
                  (  0.0000000  0.0000000  1.0000000 )       ( -0.8065331 )


      isym = 10     inv. 180 deg rotation - cryst. axis [2,1,0]  

 cryst.   s(10) = (    -1         -1          0      )    f =(  0.0000000 )
                  (     0          1          0      )       (  0.0000000 )
                  (     0          0          1      )       ( -0.5000000 )

 cart.    s(10) = ( -0.5000000 -0.8660254  0.0000000 )    f =( -0.0000000 )
                  ( -0.8660254  0.5000000  0.0000000 )       (  0.0000000 )
                  (  0.0000000  0.0000000  1.0000000 )       ( -0.8065331 )


      isym = 11     inv. 180 deg rotation - cryst. axis [0,1,0]  

 cryst.   s(11) = (     1          1          0      )
                  (     0         -1          0      )
                  (     0          0          1      )

 cart.    s(11) = (  0.5000000  0.8660254  0.0000000 )
                  (  0.8660254 -0.5000000  0.0000000 )
                  (  0.0000000  0.0000000  1.0000000 )


      isym = 12     inv. 180 deg rotation - cryst. axis [1,1,0]  

 cryst.   s(12) = (     0         -1          0      )
                  (    -1          0          0      )
                  (     0          0          1      )

 cart.    s(12) = (  0.5000000 -0.8660254  0.0000000 )
                  ( -0.8660254 -0.5000000  0.0000000 )
                  (  0.0000000  0.0000000  1.0000000 )


   Cartesian axes

     site n.     atom                  positions (alat units)
         1        Zn     tau(   1) = (   0.5000000   0.2886751   0.8074875  )
         2        Zn     tau(   2) = (  -0.0000000   0.5773503   0.0009545  )
         3        O      tau(   3) = (   0.5000000   0.2886751   1.4190438  )
         4        O      tau(   4) = (  -0.0000000   0.5773503   0.6125107  )

   Crystallographic axes

     site n.     atom                  positions (cryst. coord.)
         1        Zn     tau(   1) = (  0.6666667  0.3333333  0.5005917  )
         2        Zn     tau(   2) = (  0.3333333  0.6666667  0.0005917  )
         3        O      tau(   3) = (  0.6666667  0.3333333  0.8797183  )
         4        O      tau(   4) = (  0.3333333  0.6666667  0.3797183  )

     number of k points=    95  Marzari-Vanderbilt smearing, width (Ry)=  0.0147
                       cart. coord. in units 2pi/alat
        k(    1) = (   0.0000000   0.0000000   0.0000000), wk =   0.0017361
        k(    2) = (   0.0000000   0.0000000   0.0774922), wk =   0.0034722
        k(    3) = (   0.0000000   0.0000000   0.1549843), wk =   0.0034722
        k(    4) = (   0.0000000   0.0000000   0.2324765), wk =   0.0034722
        k(    5) = (   0.0000000   0.0000000  -0.3099687), wk =   0.0017361
        k(    6) = (   0.0000000   0.0962250   0.0000000), wk =   0.0104167
        k(    7) = (   0.0000000   0.0962250   0.0774922), wk =   0.0208333
        k(    8) = (   0.0000000   0.0962250   0.1549843), wk =   0.0208333
        k(    9) = (   0.0000000   0.0962250   0.2324765), wk =   0.0208333
        k(   10) = (   0.0000000   0.0962250  -0.3099687), wk =   0.0104167
        k(   11) = (   0.0000000   0.1924501   0.0000000), wk =   0.0104167
        k(   12) = (   0.0000000   0.1924501   0.0774922), wk =   0.0208333
        k(   13) = (   0.0000000   0.1924501   0.1549843), wk =   0.0208333
        k(   14) = (   0.0000000   0.1924501   0.2324765), wk =   0.0208333
        k(   15) = (   0.0000000   0.1924501  -0.3099687), wk =   0.0104167
        k(   16) = (   0.0000000   0.2886751   0.0000000), wk =   0.0104167
        k(   17) = (   0.0000000   0.2886751   0.0774922), wk =   0.0208333
        k(   18) = (   0.0000000   0.2886751   0.1549843), wk =   0.0208333
        k(   19) = (   0.0000000   0.2886751   0.2324765), wk =   0.0208333
        k(   20) = (   0.0000000   0.2886751  -0.3099687), wk =   0.0104167
        k(   21) = (   0.0000000   0.3849002   0.0000000), wk =   0.0104167
        k(   22) = (   0.0000000   0.3849002   0.0774922), wk =   0.0208333
        k(   23) = (   0.0000000   0.3849002   0.1549843), wk =   0.0208333
        k(   24) = (   0.0000000   0.3849002   0.2324765), wk =   0.0208333
        k(   25) = (   0.0000000   0.3849002  -0.3099687), wk =   0.0104167
        k(   26) = (   0.0000000   0.4811252   0.0000000), wk =   0.0104167
        k(   27) = (   0.0000000   0.4811252   0.0774922), wk =   0.0208333
        k(   28) = (   0.0000000   0.4811252   0.1549843), wk =   0.0208333
        k(   29) = (   0.0000000   0.4811252   0.2324765), wk =   0.0208333
        k(   30) = (   0.0000000   0.4811252  -0.3099687), wk =   0.0104167
        k(   31) = (   0.0000000  -0.5773503   0.0000000), wk =   0.0052083
        k(   32) = (   0.0000000  -0.5773503   0.0774922), wk =   0.0104167
        k(   33) = (   0.0000000  -0.5773503   0.1549843), wk =   0.0104167
        k(   34) = (   0.0000000  -0.5773503   0.2324765), wk =   0.0104167
        k(   35) = (   0.0000000  -0.5773503  -0.3099687), wk =   0.0052083
        k(   36) = (   0.0833333   0.1443376   0.0000000), wk =   0.0104167
        k(   37) = (   0.0833333   0.1443376   0.0774922), wk =   0.0208333
        k(   38) = (   0.0833333   0.1443376   0.1549843), wk =   0.0208333
        k(   39) = (   0.0833333   0.1443376   0.2324765), wk =   0.0208333
        k(   40) = (   0.0833333   0.1443376  -0.3099687), wk =   0.0104167
        k(   41) = (   0.0833333   0.2405626   0.0000000), wk =   0.0208333
        k(   42) = (   0.0833333   0.2405626   0.0774922), wk =   0.0416667
        k(   43) = (   0.0833333   0.2405626   0.1549843), wk =   0.0416667
        k(   44) = (   0.0833333   0.2405626   0.2324765), wk =   0.0416667
        k(   45) = (   0.0833333   0.2405626  -0.3099687), wk =   0.0208333
        k(   46) = (   0.0833333   0.3367877   0.0000000), wk =   0.0208333
        k(   47) = (   0.0833333   0.3367877   0.0774922), wk =   0.0416667
        k(   48) = (   0.0833333   0.3367877   0.1549843), wk =   0.0416667
        k(   49) = (   0.0833333   0.3367877   0.2324765), wk =   0.0416667
        k(   50) = (   0.0833333   0.3367877  -0.3099687), wk =   0.0208333
        k(   51) = (   0.0833333   0.4330127   0.0000000), wk =   0.0208333
        k(   52) = (   0.0833333   0.4330127   0.0774922), wk =   0.0416667
        k(   53) = (   0.0833333   0.4330127   0.1549843), wk =   0.0416667
        k(   54) = (   0.0833333   0.4330127   0.2324765), wk =   0.0416667
        k(   55) = (   0.0833333   0.4330127  -0.3099687), wk =   0.0208333
        k(   56) = (   0.0833333   0.5292377   0.0000000), wk =   0.0208333
        k(   57) = (   0.0833333   0.5292377   0.0774922), wk =   0.0416667
        k(   58) = (   0.0833333   0.5292377   0.1549843), wk =   0.0416667
        k(   59) = (   0.0833333   0.5292377   0.2324765), wk =   0.0416667
        k(   60) = (   0.0833333   0.5292377  -0.3099687), wk =   0.0208333
        k(   61) = (   0.1666667   0.2886751   0.0000000), wk =   0.0104167
        k(   62) = (   0.1666667   0.2886751   0.0774922), wk =   0.0208333
        k(   63) = (   0.1666667   0.2886751   0.1549843), wk =   0.0208333
        k(   64) = (   0.1666667   0.2886751   0.2324765), wk =   0.0208333
        k(   65) = (   0.1666667   0.2886751  -0.3099687), wk =   0.0104167
        k(   66) = (   0.1666667   0.3849002   0.0000000), wk =   0.0208333
        k(   67) = (   0.1666667   0.3849002   0.0774922), wk =   0.0416667
        k(   68) = (   0.1666667   0.3849002   0.1549843), wk =   0.0416667
        k(   69) = (   0.1666667   0.3849002   0.2324765), wk =   0.0416667
        k(   70) = (   0.1666667   0.3849002  -0.3099687), wk =   0.0208333
        k(   71) = (   0.1666667   0.4811252   0.0000000), wk =   0.0208333
        k(   72) = (   0.1666667   0.4811252   0.0774922), wk =   0.0416667
        k(   73) = (   0.1666667   0.4811252   0.1549843), wk =   0.0416667
        k(   74) = (   0.1666667   0.4811252   0.2324765), wk =   0.0416667
        k(   75) = (   0.1666667   0.4811252  -0.3099687), wk =   0.0208333
        k(   76) = (   0.1666667   0.5773503   0.0000000), wk =   0.0104167
        k(   77) = (   0.1666667   0.5773503   0.0774922), wk =   0.0208333
        k(   78) = (   0.1666667   0.5773503   0.1549843), wk =   0.0208333
        k(   79) = (   0.1666667   0.5773503   0.2324765), wk =   0.0208333
        k(   80) = (   0.1666667   0.5773503  -0.3099687), wk =   0.0104167
        k(   81) = (   0.2500000   0.4330127   0.0000000), wk =   0.0104167
        k(   82) = (   0.2500000   0.4330127   0.0774922), wk =   0.0208333
        k(   83) = (   0.2500000   0.4330127   0.1549843), wk =   0.0208333
        k(   84) = (   0.2500000   0.4330127   0.2324765), wk =   0.0208333
        k(   85) = (   0.2500000   0.4330127  -0.3099687), wk =   0.0104167
        k(   86) = (   0.2500000   0.5292377   0.0000000), wk =   0.0208333
        k(   87) = (   0.2500000   0.5292377   0.0774922), wk =   0.0416667
        k(   88) = (   0.2500000   0.5292377   0.1549843), wk =   0.0416667
        k(   89) = (   0.2500000   0.5292377   0.2324765), wk =   0.0416667
        k(   90) = (   0.2500000   0.5292377  -0.3099687), wk =   0.0208333
        k(   91) = (   0.3333333   0.5773503   0.0000000), wk =   0.0034722
        k(   92) = (   0.3333333   0.5773503   0.0774922), wk =   0.0069444
        k(   93) = (   0.3333333   0.5773503   0.1549843), wk =   0.0069444
        k(   94) = (   0.3333333   0.5773503   0.2324765), wk =   0.0069444
        k(   95) = (   0.3333333   0.5773503  -0.3099687), wk =   0.0034722

                       cryst. coord.
        k(    1) = (   0.0000000   0.0000000   0.0000000), wk =   0.0017361
        k(    2) = (   0.0000000   0.0000000   0.1250000), wk =   0.0034722
        k(    3) = (   0.0000000   0.0000000   0.2500000), wk =   0.0034722
        k(    4) = (   0.0000000   0.0000000   0.3750000), wk =   0.0034722
        k(    5) = (   0.0000000   0.0000000  -0.5000000), wk =   0.0017361
        k(    6) = (   0.0000000   0.0833333   0.0000000), wk =   0.0104167
        k(    7) = (   0.0000000   0.0833333   0.1250000), wk =   0.0208333
        k(    8) = (   0.0000000   0.0833333   0.2500000), wk =   0.0208333
        k(    9) = (   0.0000000   0.0833333   0.3750000), wk =   0.0208333
        k(   10) = (   0.0000000   0.0833333  -0.5000000), wk =   0.0104167
        k(   11) = (   0.0000000   0.1666667   0.0000000), wk =   0.0104167
        k(   12) = (   0.0000000   0.1666667   0.1250000), wk =   0.0208333
        k(   13) = (   0.0000000   0.1666667   0.2500000), wk =   0.0208333
        k(   14) = (   0.0000000   0.1666667   0.3750000), wk =   0.0208333
        k(   15) = (   0.0000000   0.1666667  -0.5000000), wk =   0.0104167
        k(   16) = (   0.0000000   0.2500000   0.0000000), wk =   0.0104167
        k(   17) = (   0.0000000   0.2500000   0.1250000), wk =   0.0208333
        k(   18) = (   0.0000000   0.2500000   0.2500000), wk =   0.0208333
        k(   19) = (   0.0000000   0.2500000   0.3750000), wk =   0.0208333
        k(   20) = (   0.0000000   0.2500000  -0.5000000), wk =   0.0104167
        k(   21) = (   0.0000000   0.3333333   0.0000000), wk =   0.0104167
        k(   22) = (   0.0000000   0.3333333   0.1250000), wk =   0.0208333
        k(   23) = (   0.0000000   0.3333333   0.2500000), wk =   0.0208333
        k(   24) = (   0.0000000   0.3333333   0.3750000), wk =   0.0208333
        k(   25) = (   0.0000000   0.3333333  -0.5000000), wk =   0.0104167
        k(   26) = (   0.0000000   0.4166667   0.0000000), wk =   0.0104167
        k(   27) = (   0.0000000   0.4166667   0.1250000), wk =   0.0208333
        k(   28) = (   0.0000000   0.4166667   0.2500000), wk =   0.0208333
        k(   29) = (   0.0000000   0.4166667   0.3750000), wk =   0.0208333
        k(   30) = (   0.0000000   0.4166667  -0.5000000), wk =   0.0104167
        k(   31) = (   0.0000000  -0.5000000   0.0000000), wk =   0.0052083
        k(   32) = (   0.0000000  -0.5000000   0.1250000), wk =   0.0104167
        k(   33) = (   0.0000000  -0.5000000   0.2500000), wk =   0.0104167
        k(   34) = (   0.0000000  -0.5000000   0.3750000), wk =   0.0104167
        k(   35) = (   0.0000000  -0.5000000  -0.5000000), wk =   0.0052083
        k(   36) = (   0.0833333   0.0833333   0.0000000), wk =   0.0104167
        k(   37) = (   0.0833333   0.0833333   0.1250000), wk =   0.0208333
        k(   38) = (   0.0833333   0.0833333   0.2500000), wk =   0.0208333
        k(   39) = (   0.0833333   0.0833333   0.3750000), wk =   0.0208333
        k(   40) = (   0.0833333   0.0833333  -0.5000000), wk =   0.0104167
        k(   41) = (   0.0833333   0.1666667   0.0000000), wk =   0.0208333
        k(   42) = (   0.0833333   0.1666667   0.1250000), wk =   0.0416667
        k(   43) = (   0.0833333   0.1666667   0.2500000), wk =   0.0416667
        k(   44) = (   0.0833333   0.1666667   0.3750000), wk =   0.0416667
        k(   45) = (   0.0833333   0.1666667  -0.5000000), wk =   0.0208333
        k(   46) = (   0.0833333   0.2500000   0.0000000), wk =   0.0208333
        k(   47) = (   0.0833333   0.2500000   0.1250000), wk =   0.0416667
        k(   48) = (   0.0833333   0.2500000   0.2500000), wk =   0.0416667
        k(   49) = (   0.0833333   0.2500000   0.3750000), wk =   0.0416667
        k(   50) = (   0.0833333   0.2500000  -0.5000000), wk =   0.0208333
        k(   51) = (   0.0833333   0.3333333   0.0000000), wk =   0.0208333
        k(   52) = (   0.0833333   0.3333333   0.1250000), wk =   0.0416667
        k(   53) = (   0.0833333   0.3333333   0.2500000), wk =   0.0416667
        k(   54) = (   0.0833333   0.3333333   0.3750000), wk =   0.0416667
        k(   55) = (   0.0833333   0.3333333  -0.5000000), wk =   0.0208333
        k(   56) = (   0.0833333   0.4166667   0.0000000), wk =   0.0208333
        k(   57) = (   0.0833333   0.4166667   0.1250000), wk =   0.0416667
        k(   58) = (   0.0833333   0.4166667   0.2500000), wk =   0.0416667
        k(   59) = (   0.0833333   0.4166667   0.3750000), wk =   0.0416667
        k(   60) = (   0.0833333   0.4166667  -0.5000000), wk =   0.0208333
        k(   61) = (   0.1666667   0.1666667   0.0000000), wk =   0.0104167
        k(   62) = (   0.1666667   0.1666667   0.1250000), wk =   0.0208333
        k(   63) = (   0.1666667   0.1666667   0.2500000), wk =   0.0208333
        k(   64) = (   0.1666667   0.1666667   0.3750000), wk =   0.0208333
        k(   65) = (   0.1666667   0.1666667  -0.5000000), wk =   0.0104167
        k(   66) = (   0.1666667   0.2500000   0.0000000), wk =   0.0208333
        k(   67) = (   0.1666667   0.2500000   0.1250000), wk =   0.0416667
        k(   68) = (   0.1666667   0.2500000   0.2500000), wk =   0.0416667
        k(   69) = (   0.1666667   0.2500000   0.3750000), wk =   0.0416667
        k(   70) = (   0.1666667   0.2500000  -0.5000000), wk =   0.0208333
        k(   71) = (   0.1666667   0.3333333   0.0000000), wk =   0.0208333
        k(   72) = (   0.1666667   0.3333333   0.1250000), wk =   0.0416667
        k(   73) = (   0.1666667   0.3333333   0.2500000), wk =   0.0416667
        k(   74) = (   0.1666667   0.3333333   0.3750000), wk =   0.0416667
        k(   75) = (   0.1666667   0.3333333  -0.5000000), wk =   0.0208333
        k(   76) = (   0.1666667   0.4166667   0.0000000), wk =   0.0104167
        k(   77) = (   0.1666667   0.4166667   0.1250000), wk =   0.0208333
        k(   78) = (   0.1666667   0.4166667   0.2500000), wk =   0.0208333
        k(   79) = (   0.1666667   0.4166667   0.3750000), wk =   0.0208333
        k(   80) = (   0.1666667   0.4166667  -0.5000000), wk =   0.0104167
        k(   81) = (   0.2500000   0.2500000   0.0000000), wk =   0.0104167
        k(   82) = (   0.2500000   0.2500000   0.1250000), wk =   0.0208333
        k(   83) = (   0.2500000   0.2500000   0.2500000), wk =   0.0208333
        k(   84) = (   0.2500000   0.2500000   0.3750000), wk =   0.0208333
        k(   85) = (   0.2500000   0.2500000  -0.5000000), wk =   0.0104167
        k(   86) = (   0.2500000   0.3333333   0.0000000), wk =   0.0208333
        k(   87) = (   0.2500000   0.3333333   0.1250000), wk =   0.0416667
        k(   88) = (   0.2500000   0.3333333   0.2500000), wk =   0.0416667
        k(   89) = (   0.2500000   0.3333333   0.3750000), wk =   0.0416667
        k(   90) = (   0.2500000   0.3333333  -0.5000000), wk =   0.0208333
        k(   91) = (   0.3333333   0.3333333   0.0000000), wk =   0.0034722
        k(   92) = (   0.3333333   0.3333333   0.1250000), wk =   0.0069444
        k(   93) = (   0.3333333   0.3333333   0.2500000), wk =   0.0069444
        k(   94) = (   0.3333333   0.3333333   0.3750000), wk =   0.0069444
        k(   95) = (   0.3333333   0.3333333  -0.5000000), wk =   0.0034722

     Dense  grid:    35867 G-vectors     FFT dimensions: (  40,  40,  60)

     Smooth grid:    12635 G-vectors     FFT dimensions: (  25,  25,  48)

     Dynamical RAM for                 wfc:       0.75 MB

     Dynamical RAM for     wfc (w. buffer):      72.02 MB

     Dynamical RAM for           str. fact:       1.09 MB

     Dynamical RAM for           local pot:       0.00 MB

     Dynamical RAM for          nlocal pot:       1.26 MB

     Dynamical RAM for                qrad:       3.21 MB

     Dynamical RAM for          rho,v,vnew:       3.84 MB

     Dynamical RAM for               rhoin:       1.28 MB

     Dynamical RAM for            rho*nmix:       8.76 MB

     Dynamical RAM for           G-vectors:       2.15 MB

     Dynamical RAM for          h,s,v(r/c):       0.18 MB

     Dynamical RAM for          <psi|beta>:       0.02 MB

     Dynamical RAM for                 psi:       1.50 MB

     Dynamical RAM for                hpsi:       1.50 MB

     Dynamical RAM for                spsi:       1.50 MB

     Dynamical RAM for      wfcinit/wfcrot:       1.67 MB

     Dynamical RAM for           addusdens:     102.89 MB

     Dynamical RAM for          addusforce:     104.27 MB

     Dynamical RAM for         addusstress:     110.00 MB

     Estimated static dynamical RAM per process >      90.16 MB

     Estimated max dynamical RAM per process >     208.92 MB

     Check: negative core charge=   -0.000003

     Initial potential from superposition of free atoms

     starting charge      51.9997, renormalised to      52.0000
     Starting wfcs are   34 randomized atomic wfcs
     Checking if some PAW data can be deallocated... 

     total cpu time spent up to now is        7.7 secs

     Self-consistent Calculation

     iteration #  1     ecut=    50.00 Ry     beta= 0.40
     Davidson diagonalization with overlap

---- Real-time Memory Report at c_bands before calling an iterative solver
           156 MiB given to the printing process from OS
             0 MiB allocation reported by mallinfo(arena+hblkhd)
          4662 MiB available memory on the node where the printing process lives
------------------
     ethr =  1.00E-02,  avg # of iterations =  3.0

     total cpu time spent up to now is       42.0 secs

     total energy              =   -1006.25639092 Ry
     estimated scf accuracy    <       0.82535318 Ry

     iteration #  2     ecut=    50.00 Ry     beta= 0.40
     Davidson diagonalization with overlap

---- Real-time Memory Report at c_bands before calling an iterative solver
           254 MiB given to the printing process from OS
             0 MiB allocation reported by mallinfo(arena+hblkhd)
          4621 MiB available memory on the node where the printing process lives
------------------
     ethr =  1.59E-03,  avg # of iterations =  2.0

     total cpu time spent up to now is       65.4 secs

     total energy              =   -1006.47106767 Ry
     estimated scf accuracy    <       0.06164686 Ry

     iteration #  3     ecut=    50.00 Ry     beta= 0.40
     Davidson diagonalization with overlap

---- Real-time Memory Report at c_bands before calling an iterative solver
           255 MiB given to the printing process from OS
             0 MiB allocation reported by mallinfo(arena+hblkhd)
          4616 MiB available memory on the node where the printing process lives
------------------
     ethr =  1.19E-04,  avg # of iterations =  3.1

     total cpu time spent up to now is       84.9 secs

     total energy              =   -1006.47903236 Ry
     estimated scf accuracy    <       0.00779227 Ry

     iteration #  4     ecut=    50.00 Ry     beta= 0.40
     Davidson diagonalization with overlap

---- Real-time Memory Report at c_bands before calling an iterative solver
           255 MiB given to the printing process from OS
             0 MiB allocation reported by mallinfo(arena+hblkhd)
          4619 MiB available memory on the node where the printing process lives
------------------
     ethr =  1.50E-05,  avg # of iterations =  2.8

     total cpu time spent up to now is      101.0 secs

     total energy              =   -1006.47905922 Ry
     estimated scf accuracy    <       0.00198440 Ry

     iteration #  5     ecut=    50.00 Ry     beta= 0.40
     Davidson diagonalization with overlap

---- Real-time Memory Report at c_bands before calling an iterative solver
           255 MiB given to the printing process from OS
             0 MiB allocation reported by mallinfo(arena+hblkhd)
          4616 MiB available memory on the node where the printing process lives
------------------
     ethr =  3.82E-06,  avg # of iterations =  1.9

     total cpu time spent up to now is      117.8 secs

     total energy              =   -1006.47915277 Ry
     estimated scf accuracy    <       0.00002406 Ry

     iteration #  6     ecut=    50.00 Ry     beta= 0.40
     Davidson diagonalization with overlap

---- Real-time Memory Report at c_bands before calling an iterative solver
           256 MiB given to the printing process from OS
             0 MiB allocation reported by mallinfo(arena+hblkhd)
          4615 MiB available memory on the node where the printing process lives
------------------
     ethr =  4.63E-08,  avg # of iterations =  3.1

     total cpu time spent up to now is      143.3 secs

     total energy              =   -1006.47915906 Ry
     estimated scf accuracy    <       0.00004750 Ry

     iteration #  7     ecut=    50.00 Ry     beta= 0.40
     Davidson diagonalization with overlap

---- Real-time Memory Report at c_bands before calling an iterative solver
           256 MiB given to the printing process from OS
             0 MiB allocation reported by mallinfo(arena+hblkhd)
          4574 MiB available memory on the node where the printing process lives
------------------
     ethr =  4.63E-08,  avg # of iterations =  2.0

     total cpu time spent up to now is      162.7 secs

     total energy              =   -1006.47916564 Ry
     estimated scf accuracy    <       0.00000081 Ry

     iteration #  8     ecut=    50.00 Ry     beta= 0.40
     Davidson diagonalization with overlap

---- Real-time Memory Report at c_bands before calling an iterative solver
           257 MiB given to the printing process from OS
             0 MiB allocation reported by mallinfo(arena+hblkhd)
          4571 MiB available memory on the node where the printing process lives
------------------
     ethr =  1.56E-09,  avg # of iterations =  2.1

     total cpu time spent up to now is      183.4 secs

     total energy              =   -1006.47916585 Ry
     estimated scf accuracy    <       0.00000020 Ry

     iteration #  9     ecut=    50.00 Ry     beta= 0.40
     Davidson diagonalization with overlap

---- Real-time Memory Report at c_bands before calling an iterative solver
           257 MiB given to the printing process from OS
             0 MiB allocation reported by mallinfo(arena+hblkhd)
          4571 MiB available memory on the node where the printing process lives
------------------
     ethr =  3.92E-10,  avg # of iterations =  2.0

     total cpu time spent up to now is      202.7 secs

     End of self-consistent calculation

          k = 0.0000 0.0000 0.0000 (  1605 PWs)   bands (ev):

  -111.4842-111.4837 -65.6997 -65.6914 -65.6909 -65.6909 -65.6896 -65.6896
    -7.4922  -6.4268   5.0448   5.4712   5.4712   5.5429   5.7289   5.7289
     7.2866   7.2866   7.6081   7.6081   7.9809  11.3208  11.3208  12.1912
    12.3584  12.3584  13.4115  18.2911  21.1676  26.2559  26.2559

     occupation numbers 
     1.0000   1.0000   1.0000   1.0000   1.0000   1.0000   1.0000   1.0000
     1.0000   1.0000   1.0000   1.0000   1.0000   1.0000   1.0000   1.0000
     1.0000   1.0000   1.0000   1.0000   1.0000   1.0000   1.0000   1.0000
     1.0002   1.0002   0.0009   0.0000   0.0000   0.0000   0.0000

          k = 0.0000 0.0000 0.0775 (  1617 PWs)   bands (ev):

  -111.4842-111.4837 -65.6995 -65.6919 -65.6909 -65.6909 -65.6896 -65.6896
    -7.4546  -6.4706   5.0134   5.4761   5.4761   5.4927   5.7135   5.7135
     7.3035   7.3035   7.6015   7.6015   8.1586  11.3602  11.3602  11.8587
    12.3194  12.3194  13.8055  18.1233  21.3057  26.2480  26.2481

     occupation numbers 
     1.0000   1.0000   1.0000   1.0000   1.0000   1.0000   1.0000   1.0000
     1.0000   1.0000   1.0000   1.0000   1.0000   1.0000   1.0000   1.0000
     1.0000   1.0000   1.0000   1.0000   1.0000   1.0000   1.0000   1.0000
     1.0001   1.0001   0.0000   0.0000   0.0000   0.0000   0.0000

          k = 0.0000 0.0000 0.1550 (  1599 PWs)   bands (ev):

  -111.4841-111.4838 -65.6987 -65.6926 -65.6908 -65.6908 -65.6896 -65.6896
    -7.3464  -6.5938   4.9641   5.3612   5.4922   5.4922   5.6727   5.6727
     7.3499   7.3499   7.5797   7.5797   8.6259  11.2675  11.4730  11.4730
    12.2079  12.2079  14.5560  17.6693  21.6942  25.5096  26.2551

     occupation numbers 
     1.0000   1.0000   1.0000   1.0000   1.0000   1.0000   1.0000   1.0000
     1.0000   1.0000   1.0000   1.0000   1.0000   1.0000   1.0000   1.0000
     1.0000   1.0000   1.0000   1.0000   1.0000   1.0000   1.0000   1.0000
     1.0000   1.0000   0.0000   0.0000   0.0000   0.0000   0.0000

          k = 0.0000 0.0000 0.2325 (  1593 PWs)   bands (ev):

  -111.4841-111.4838 -65.6972 -65.6939 -65.6905 -65.6905 -65.6899 -65.6899
    -7.1811  -6.7741   4.9667   5.1949   5.5217   5.5217   5.6187   5.6187
     7.4141   7.4141   7.5395   7.5395   9.2561  10.6219  11.6420  11.6420
    12.0402  12.0402  15.3957  17.0164  22.3086  24.2422  26.3376

     occupation numbers 
     1.0000   1.0000   1.0000   1.0000   1.0000   1.0000   1.0000   1.0000
     1.0000   1.0000   1.0000   1.0000   1.0000   1.0000   1.0000   1.0000
     1.0000   1.0000   1.0000   1.0000   1.0000   1.0000   1.0000   1.0000
     1.0000   1.0000   0.0000   0.0000   0.0000   0.0000   0.0000

          k = 0.0000 0.0000-0.3100 (  1592 PWs)   bands (ev):

  -111.4840-111.4839 -65.6956 -65.6956 -65.6902 -65.6902 -65.6902 -65.6902
    -6.9807  -6.9807   5.0489   5.0489   5.5652   5.5652   5.5652   5.5652
     7.4817   7.4817   7.4817   7.4817   9.9428   9.9428  11.8414  11.8414
    11.8414  11.8414  16.2375  16.2375  23.1569  23.1569  26.5410

     occupation numbers 
     1.0000   1.0000   1.0000   1.0000   1.0000   1.0000   1.0000   1.0000
     1.0000   1.0000   1.0000   1.0000   1.0000   1.0000   1.0000   1.0000
     1.0000   1.0000   1.0000   1.0000   1.0000   1.0000   1.0000   1.0000
     1.0000   1.0000   0.0000   0.0000   0.0000   0.0000   0.0000

          k = 0.0000 0.0962 0.0000 (  1595 PWs)   bands (ev):

  -111.4842-111.4837 -65.6997 -65.6915 -65.6914 -65.6910 -65.6898 -65.6895
    -7.4364  -6.4014   5.1141   5.4036   5.5009   5.5763   5.7143   5.7697
     7.2593   7.2820   7.6139   7.6306   7.9717  11.0310  11.2024  11.9091
    12.1350  12.2938  13.9581  18.6293  21.1429  25.3483  26.3523

     occupation numbers 
     1.0000   1.0000   1.0000   1.0000   1.0000   1.0000   1.0000   1.0000
     1.0000   1.0000   1.0000   1.0000   1.0000   1.0000   1.0000   1.0000
     1.0000   1.0000   1.0000   1.0000   1.0000   1.0000   1.0000   1.0000
     1.0000   1.0000   0.0000   0.0000   0.0000   0.0000   0.0000

          k = 0.0000 0.0962 0.0775 (  1597 PWs)   bands (ev):

  -111.4842-111.4837 -65.6993 -65.6919 -65.6913 -65.6910 -65.6899 -65.6896
    -7.3997  -6.4436   5.0682   5.3795   5.5063   5.5559   5.7059   5.7539
     7.2788   7.2989   7.6064   7.6202   8.1573  11.0714  11.2443  11.6623
    12.1351  12.2530  14.2241  18.4408  21.2915  25.3741  26.3446

     occupation numbers 
     1.0000   1.0000   1.0000   1.0000   1.0000   1.0000   1.0000   1.0000
     1.0000   1.0000   1.0000   1.0000   1.0000   1.0000   1.0000   1.0000
     1.0000   1.0000   1.0000   1.0000   1.0000   1.0000   1.0000   1.0000
     1.0000   1.0000   0.0000   0.0000   0.0000   0.0000   0.0000

          k = 0.0000 0.0962 0.1550 (  1598 PWs)   bands (ev):

  -111.4841-111.4837 -65.6986 -65.6927 -65.6911 -65.6909 -65.6900 -65.6897
    -7.2940  -6.5626   4.9896   5.2873   5.5235   5.5361   5.6764   5.7117
     7.3315   7.3454   7.5822   7.5924   8.6373  11.1370  11.2331  11.3636
    12.0243  12.1362  14.8542  17.9469  21.6943  25.3106  25.7310

     occupation numbers 
     1.0000   1.0000   1.0000   1.0000   1.0000   1.0000   1.0000   1.0000
     1.0000   1.0000   1.0000   1.0000   1.0000   1.0000   1.0000   1.0000
     1.0000   1.0000   1.0000   1.0000   1.0000   1.0000   1.0000   1.0000
     1.0000   1.0000   0.0000   0.0000   0.0000   0.0000   0.0000

          k = 0.0000 0.0962 0.2325 (  1593 PWs)   bands (ev):

  -111.4840-111.4838 -65.6972 -65.6941 -65.6909 -65.6906 -65.6902 -65.6900
    -7.1328  -6.7371   4.9635   5.1460   5.5487   5.5548   5.6310   5.6559
     7.4038   7.4103   7.5392   7.5452   9.2734  10.5940  11.3800  11.5420
    11.8292  11.9605  15.6408  17.2618  22.3111  24.2167  25.7448

     occupation numbers 
     1.0000   1.0000   1.0000   1.0000   1.0000   1.0000   1.0000   1.0000
     1.0000   1.0000   1.0000   1.0000   1.0000   1.0000   1.0000   1.0000
     1.0000   1.0000   1.0000   1.0000   1.0000   1.0000   1.0000   1.0000
     1.0000   1.0000   0.0000   0.0000   0.0000   0.0000   0.0000

          k = 0.0000 0.0962-0.3100 (  1598 PWs)   bands (ev):

  -111.4839-111.4839 -65.6956 -65.6956 -65.6905 -65.6905 -65.6904 -65.6904
    -6.9377  -6.9377   5.0214   5.0214   5.5840   5.5840   5.6004   5.6004
     7.4791   7.4791   7.4797   7.4797   9.9503   9.9503  11.6004  11.6004
    11.7518  11.7518  16.4694  16.4694  23.1504  23.1504  26.0212

     occupation numbers 
     1.0000   1.0000   1.0000   1.0000   1.0000   1.0000   1.0000   1.0000
     1.0000   1.0000   1.0000   1.0000   1.0000   1.0000   1.0000   1.0000
     1.0000   1.0000   1.0000   1.0000   1.0000   1.0000   1.0000   1.0000
     1.0000   1.0000   0.0000   0.0000   0.0000   0.0000   0.0000

          k = 0.0000 0.1925 0.0000 (  1605 PWs)   bands (ev):

  -111.4841-111.4836 -65.6993 -65.6925 -65.6918 -65.6914 -65.6910 -65.6898
    -7.2789  -6.3337   5.1693   5.3809   5.5794   5.6086   5.7410   5.8870
     7.1860   7.2821   7.6271   7.6762   7.9666  10.2954  10.8796  11.2406
    11.9590  12.1105  14.9145  19.4602  21.0545  23.9077  26.0985

     occupation numbers 
     1.0000   1.0000   1.0000   1.0000   1.0000   1.0000   1.0000   1.0000
     1.0000   1.0000   1.0000   1.0000   1.0000   1.0000   1.0000   1.0000
     1.0000   1.0000   1.0000   1.0000   1.0000   1.0000   1.0000   1.0000
     1.0000   1.0000   0.0000   0.0000   0.0000   0.0000   0.0000

          k = 0.0000 0.1925 0.0775 (  1606 PWs)   bands (ev):

  -111.4841-111.4837 -65.6990 -65.6924 -65.6923 -65.6914 -65.6909 -65.6899
    -7.2447  -6.3714   5.1256   5.2898   5.5863   5.6226   5.7408   5.8696
     7.2138   7.2984   7.6175   7.6635   8.1655  10.3397  10.9280  11.1297
    11.9153  12.0651  15.0783  19.1933  21.2519  23.9545  25.9926

     occupation numbers 
     1.0000   1.0000   1.0000   1.0000   1.0000   1.0000   1.0000   1.0000
     1.0000   1.0000   1.0000   1.0000   1.0000   1.0000   1.0000   1.0000
     1.0000   1.0000   1.0000   1.0000   1.0000   1.0000   1.0000   1.0000
     1.0000   1.0000   0.0000   0.0000   0.0000   0.0000   0.0000

          k = 0.0000 0.1925 0.1550 (  1594 PWs)   bands (ev):

  -111.4840-111.4837 -65.6982 -65.6932 -65.6920 -65.6912 -65.6909 -65.6900
    -7.1466  -6.4781   5.0149   5.1513   5.6080   5.6214   5.7267   5.8230
     7.2855   7.3433   7.5883   7.6260   8.6700  10.4577  10.8725  11.0651
    11.7376  11.9351  15.5398  18.5815  21.6963  24.0410  25.5087

     occupation numbers 
     1.0000   1.0000   1.0000   1.0000   1.0000   1.0000   1.0000   1.0000
     1.0000   1.0000   1.0000   1.0000   1.0000   1.0000   1.0000   1.0000
     1.0000   1.0000   1.0000   1.0000   1.0000   1.0000   1.0000   1.0000
     1.0000   1.0000   0.0000   0.0000   0.0000   0.0000   0.0000

          k = 0.0000 0.1925 0.2325 (  1591 PWs)   bands (ev):

  -111.4840-111.4838 -65.6971 -65.6944 -65.6917 -65.6910 -65.6909 -65.6902
    -6.9976  -6.6357   4.9334   5.0259   5.6272   5.6455   5.6919   5.7610
     7.3798   7.4068   7.5398   7.5627   9.3051  10.3883  10.7848  11.2683
    11.4227  11.7389  16.2156  17.8198  22.2894  23.7910  25.0122

     occupation numbers 
     1.0000   1.0000   1.0000   1.0000   1.0000   1.0000   1.0000   1.0000
     1.0000   1.0000   1.0000   1.0000   1.0000   1.0000   1.0000   1.0000
     1.0000   1.0000   1.0000   1.0000   1.0000   1.0000   1.0000   1.0000
     1.0000   1.0000   0.0000   0.0000   0.0000   0.0000   0.0000

          k = 0.0000 0.1925-0.3100 (  1592 PWs)   bands (ev):

  -111.4839-111.4839 -65.6958 -65.6958 -65.6913 -65.6913 -65.6906 -65.6906
    -6.8185  -6.8185   4.9403   4.9403   5.6533   5.6533   5.6983   5.6983
     7.4764   7.4764   7.4773   7.4773   9.9159   9.9159  11.0659  11.0659
    11.5050  11.5050  17.0051  17.0051  23.0272  23.0272  25.2014

     occupation numbers 
     1.0000   1.0000   1.0000   1.0000   1.0000   1.0000   1.0000   1.0000
     1.0000   1.0000   1.0000   1.0000   1.0000   1.0000   1.0000   1.0000
     1.0000   1.0000   1.0000   1.0000   1.0000   1.0000   1.0000   1.0000
     1.0000   1.0000   0.0000   0.0000   0.0000   0.0000   0.0000

          k = 0.0000 0.2887 0.0000 (  1599 PWs)   bands (ev):

  -111.4840-111.4836 -65.6985 -65.6937 -65.6927 -65.6922 -65.6920 -65.6901
    -7.0485  -6.2475   5.0082   5.4643   5.6768   5.7001   5.9382   6.0664
     7.0971   7.3153   7.6424   7.6731   8.0411   9.4143  10.4315  10.5559
    11.6624  11.8445  15.9926  20.3424  20.9021  22.6822  25.1675

     occupation numbers 
     1.0000   1.0000   1.0000   1.0000   1.0000   1.0000   1.0000   1.0000
     1.0000   1.0000   1.0000   1.0000   1.0000   1.0000   1.0000   1.0000
     1.0000   1.0000   1.0000   1.0000   1.0000   1.0000   1.0000   1.0000
     1.0000   1.0000   0.0000   0.0000   0.0000   0.0000   0.0000

          k = 0.0000 0.2887 0.0775 (  1599 PWs)   bands (ev):

  -111.4840-111.4836 -65.6983 -65.6935 -65.6932 -65.6919 -65.6919 -65.6902
    -7.0185  -6.2782   4.9796   5.3252   5.6869   5.7240   5.9217   6.0455
     7.1398   7.3289   7.6308   7.6945   8.2175   9.4675  10.4780  10.4893
    11.6446  11.7933  16.0822  19.8898  21.2542  22.7302  25.1197

     occupation numbers 
     1.0000   1.0000   1.0000   1.0000   1.0000   1.0000   1.0000   1.0000
     1.0000   1.0000   1.0000   1.0000   1.0000   1.0000   1.0000   1.0000
     1.0000   1.0000   1.0000   1.0000   1.0000   1.0000   1.0000   1.0000
     1.0000   1.0000   0.0000   0.0000   0.0000   0.0000   0.0000

          k = 0.0000 0.2887 0.1550 (  1590 PWs)   bands (ev):

  -111.4839-111.4836 -65.6978 -65.6941 -65.6932 -65.6918 -65.6916 -65.6903
    -6.9330  -6.3658   4.9073   5.0950   5.7174   5.7338   5.8786   5.9894
     7.2391   7.3670   7.5974   7.6690   8.7034   9.6238  10.3065  10.6514
    11.5117  11.6469  16.3750  19.1588  21.7275  22.8473  24.8841

     occupation numbers 
     1.0000   1.0000   1.0000   1.0000   1.0000   1.0000   1.0000   1.0000
     1.0000   1.0000   1.0000   1.0000   1.0000   1.0000   1.0000   1.0000
     1.0000   1.0000   1.0000   1.0000   1.0000   1.0000   1.0000   1.0000
     1.0000   1.0000   0.0000   0.0000   0.0000   0.0000   0.0000

          k = 0.0000 0.2887 0.2325 (  1594 PWs)   bands (ev):

  -111.4839-111.4837 -65.6971 -65.6952 -65.6927 -65.6920 -65.6914 -65.6907
    -6.8040  -6.4968   4.8381   4.9189   5.7447   5.7678   5.8242   5.9138
     7.3612   7.4223   7.5467   7.5918   9.2379   9.7847  10.2523  10.8879
    11.1708  11.4253  16.8899  18.3644  22.1949  22.8871  24.6460

     occupation numbers 
     1.0000   1.0000   1.0000   1.0000   1.0000   1.0000   1.0000   1.0000
     1.0000   1.0000   1.0000   1.0000   1.0000   1.0000   1.0000   1.0000
     1.0000   1.0000   1.0000   1.0000   1.0000   1.0000   1.0000   1.0000
     1.0000   1.0000   0.0000   0.0000   0.0000   0.0000   0.0000

          k = 0.0000 0.2887-0.3100 (  1602 PWs)   bands (ev):

  -111.4838-111.4838 -65.6963 -65.6963 -65.6923 -65.6923 -65.6910 -65.6910
    -6.6508  -6.6508   4.8324   4.8324   5.7755   5.7755   5.8357   5.8357
     7.4842   7.4842   7.4854   7.4854   9.6127   9.6127  10.6664  10.6664
    11.1596  11.1596  17.5811  17.5811  22.6336  22.6336  24.8116

     occupation numbers 
     1.0000   1.0000   1.0000   1.0000   1.0000   1.0000   1.0000   1.0000
     1.0000   1.0000   1.0000   1.0000   1.0000   1.0000   1.0000   1.0000
     1.0000   1.0000   1.0000   1.0000   1.0000   1.0000   1.0000   1.0000
     1.0000   1.0000   0.0000   0.0000   0.0000   0.0000   0.0000

          k = 0.0000 0.3849 0.0000 (  1589 PWs)   bands (ev):

  -111.4839-111.4835 -65.6976 -65.6950 -65.6940 -65.6928 -65.6924 -65.6905
    -6.7920  -6.1763   4.8975   5.3663   5.7572   5.8899   6.2317   6.2778
     7.0905   7.3959   7.6275   7.6591   8.1695   8.6644   9.8605   9.9570
    11.2768  11.5580  17.1052  20.4509  20.8143  22.0702  24.5939

     occupation numbers 
     1.0000   1.0000   1.0000   1.0000   1.0000   1.0000   1.0000   1.0000
     1.0000   1.0000   1.0000   1.0000   1.0000   1.0000   1.0000   1.0000
     1.0000   1.0000   1.0000   1.0000   1.0000   1.0000   1.0000   1.0000
     1.0000   1.0000   0.0000   0.0000   0.0000   0.0000   0.0000

          k = 0.0000 0.3849 0.0775 (  1583 PWs)   bands (ev):

  -111.4839-111.4835 -65.6977 -65.6948 -65.6944 -65.6926 -65.6923 -65.6905
    -6.7678  -6.1985   4.8686   5.2601   5.7716   5.8824   6.1761   6.2507
     7.1389   7.4050   7.6465   7.6992   8.2649   8.7513   9.8114  10.0262
    11.2961  11.5015  17.1200  20.0018  21.2041  22.0888  24.5449

     occupation numbers 
     1.0000   1.0000   1.0000   1.0000   1.0000   1.0000   1.0000   1.0000
     1.0000   1.0000   1.0000   1.0000   1.0000   1.0000   1.0000   1.0000
     1.0000   1.0000   1.0000   1.0000   1.0000   1.0000   1.0000   1.0000
     1.0000   1.0000   0.0000   0.0000   0.0000   0.0000   0.0000

          k = 0.0000 0.3849 0.1550 (  1585 PWs)   bands (ev):

  -111.4838-111.4836 -65.6977 -65.6953 -65.6941 -65.6924 -65.6921 -65.6907
    -6.6990  -6.2625   4.7993   5.0381   5.8146   5.8734   6.0782   6.1777
     7.2494   7.4309   7.6128   7.7127   8.5410   9.0027   9.7591  10.2172
    11.2646  11.3397  17.2219  19.3567  21.6649  22.1469  24.3916

     occupation numbers 
     1.0000   1.0000   1.0000   1.0000   1.0000   1.0000   1.0000   1.0000
     1.0000   1.0000   1.0000   1.0000   1.0000   1.0000   1.0000   1.0000
     1.0000   1.0000   1.0000   1.0000   1.0000   1.0000   1.0000   1.0000
     1.0000   1.0000   0.0000   0.0000   0.0000   0.0000   0.0000

          k = 0.0000 0.3849 0.2325 (  1584 PWs)   bands (ev):

  -111.4838-111.4836 -65.6973 -65.6962 -65.6934 -65.6925 -65.6917 -65.6910
    -6.5967  -6.3600   4.7380   4.8438   5.8841   5.8843   5.9903   6.0789
     7.3827   7.4700   7.5671   7.6329   8.7956   9.1328  10.0338  10.4900
    11.0374  11.0941  17.5144  18.6719  22.0130  22.2192  24.3567

     occupation numbers 
     1.0000   1.0000   1.0000   1.0000   1.0000   1.0000   1.0000   1.0000
     1.0000   1.0000   1.0000   1.0000   1.0000   1.0000   1.0000   1.0000
     1.0000   1.0000   1.0000   1.0000   1.0000   1.0000   1.0000   1.0000
     1.0000   1.0000   0.0000   0.0000   0.0000   0.0000   0.0000

          k = 0.0000 0.3849-0.3100 (  1584 PWs)   bands (ev):

  -111.4837-111.4837 -65.6969 -65.6969 -65.6929 -65.6929 -65.6914 -65.6914
    -6.4773  -6.4773   4.7418   4.7418   5.9236   5.9236   5.9756   5.9756
     7.5159   7.5159   7.5173   7.5173   9.0011   9.0011  10.5821  10.5821
    10.7974  10.7974  18.0231  18.0231  22.1965  22.1965  24.6908

     occupation numbers 
     1.0000   1.0000   1.0000   1.0000   1.0000   1.0000   1.0000   1.0000
     1.0000   1.0000   1.0000   1.0000   1.0000   1.0000   1.0000   1.0000
     1.0000   1.0000   1.0000   1.0000   1.0000   1.0000   1.0000   1.0000
     1.0000   1.0000   0.0000   0.0000   0.0000   0.0000   0.0000

          k = 0.0000 0.4811 0.0000 (  1584 PWs)   bands (ev):

  -111.4838-111.4835 -65.6971 -65.6960 -65.6951 -65.6934 -65.6926 -65.6906
    -6.5728  -6.1481   4.9070   5.2173   5.8026   6.0342   6.3494   6.4611
     7.2564   7.4978   7.6759   7.7236   7.9638   8.4764   9.2190   9.5728
    10.9072  11.3321  18.1697  20.1150  20.2442  22.1112  24.1921

     occupation numbers 
     1.0000   1.0000   1.0000   1.0000   1.0000   1.0000   1.0000   1.0000
     1.0000   1.0000   1.0000   1.0000   1.0000   1.0000   1.0000   1.0000
     1.0000   1.0000   1.0000   1.0000   1.0000   1.0000   1.0000   1.0000
     1.0000   1.0000   0.0000   0.0000   0.0000   0.0000   0.0000

          k = 0.0000 0.4811 0.0775 (  1577 PWs)   bands (ev):

  -111.4837-111.4835 -65.6973 -65.6956 -65.6953 -65.6931 -65.6925 -65.6907
    -6.5547  -6.1620   4.8700   5.1345   5.8210   6.0190   6.3036   6.4262
     7.2887   7.5022   7.6629   7.7856   7.9726   8.5445   9.2796   9.6538
    10.9526  11.2717  18.0806  19.7040  20.7068  22.1306  24.1105

     occupation numbers 
     1.0000   1.0000   1.0000   1.0000   1.0000   1.0000   1.0000   1.0000
     1.0000   1.0000   1.0000   1.0000   1.0000   1.0000   1.0000   1.0000
     1.0000   1.0000   1.0000   1.0000   1.0000   1.0000   1.0000   1.0000
     1.0000   1.0000   0.0000   0.0000   0.0000   0.0000   0.0000

          k = 0.0000 0.4811 0.1550 (  1585 PWs)   bands (ev):

  -111.4837-111.4836 -65.6977 -65.6963 -65.6945 -65.6929 -65.6924 -65.6910
    -6.5041  -6.2027   4.7822   4.9506   5.8753   6.0018   6.2109   6.3330
     7.3758   7.5151   7.6320   7.7753   8.1020   8.6016   9.5732   9.8729
    11.0087  11.0987  17.9431  19.2423  21.2206  22.1610  23.9858

     occupation numbers 
     1.0000   1.0000   1.0000   1.0000   1.0000   1.0000   1.0000   1.0000
     1.0000   1.0000   1.0000   1.0000   1.0000   1.0000   1.0000   1.0000
     1.0000   1.0000   1.0000   1.0000   1.0000   1.0000   1.0000   1.0000
     1.0000   1.0000   0.0000   0.0000   0.0000   0.0000   0.0000

          k = 0.0000 0.4811 0.2325 (  1580 PWs)   bands (ev):

  -111.4837-111.4836 -65.6978 -65.6970 -65.6937 -65.6928 -65.6921 -65.6913
    -6.4302  -6.2667   4.7024   4.7800   5.9629   6.0113   6.1212   6.2077
     7.4861   7.5360   7.5965   7.6953   8.2693   8.5404  10.0850  10.1779
    10.8352  10.9172  17.9769  18.7401  21.6461  22.1201  24.0889

     occupation numbers 
     1.0000   1.0000   1.0000   1.0000   1.0000   1.0000   1.0000   1.0000
     1.0000   1.0000   1.0000   1.0000   1.0000   1.0000   1.0000   1.0000
     1.0000   1.0000   1.0000   1.0000   1.0000   1.0000   1.0000   1.0000
     1.0000   1.0000   0.0000   0.0000   0.0000   0.0000   0.0000

          k = 0.0000 0.4811-0.3100 (  1584 PWs)   bands (ev):

  -111.4836-111.4836 -65.6975 -65.6975 -65.6932 -65.6932 -65.6917 -65.6917
    -6.3464  -6.3464   4.6920   4.6920   6.0523   6.0523   6.0777   6.0777
     7.5636   7.5636   7.5961   7.5961   8.4190   8.4190  10.5146  10.5146
    10.5903  10.5903  18.2700  18.2700  21.9470  21.9470  24.5612

     occupation numbers 
     1.0000   1.0000   1.0000   1.0000   1.0000   1.0000   1.0000   1.0000
     1.0000   1.0000   1.0000   1.0000   1.0000   1.0000   1.0000   1.0000
     1.0000   1.0000   1.0000   1.0000   1.0000   1.0000   1.0000   1.0000
     1.0000   1.0000   0.0000   0.0000   0.0000   0.0000   0.0000

          k = 0.0000-0.5774 0.0000 (  1582 PWs)   bands (ev):

  -111.4837-111.4835 -65.6970 -65.6962 -65.6955 -65.6937 -65.6927 -65.6907
    -6.4772  -6.1513   5.0056   5.0702   5.8163   6.0936   6.3474   6.5358
     7.3091   7.5494   7.6835   7.7792   8.0750   8.3253   8.9418   9.4180
    10.7423  11.2451  18.9493  19.4447  20.1273  22.1428  24.0424

     occupation numbers 
     1.0000   1.0000   1.0000   1.0000   1.0000   1.0000   1.0000   1.0000
     1.0000   1.0000   1.0000   1.0000   1.0000   1.0000   1.0000   1.0000
     1.0000   1.0000   1.0000   1.0000   1.0000   1.0000   1.0000   1.0000
     1.0000   1.0000   0.0000   0.0000   0.0000   0.0000   0.0000

          k = 0.0000-0.5774 0.0775 (  1582 PWs)   bands (ev):

  -111.4837-111.4835 -65.6974 -65.6959 -65.6955 -65.6935 -65.6926 -65.6908
    -6.4625  -6.1611   4.9591   5.0029   5.8361   6.0775   6.3155   6.4971
     7.3666   7.5517   7.6700   7.7800   8.0824   8.2731   9.1414   9.5049
    10.7951  11.1833  18.6638  19.3616  20.4677  22.1678  23.9486

     occupation numbers 
     1.0000   1.0000   1.0000   1.0000   1.0000   1.0000   1.0000   1.0000
     1.0000   1.0000   1.0000   1.0000   1.0000   1.0000   1.0000   1.0000
     1.0000   1.0000   1.0000   1.0000   1.0000   1.0000   1.0000   1.0000
     1.0000   1.0000   0.0000   0.0000   0.0000   0.0000   0.0000

          k = 0.0000-0.5774 0.1550 (  1576 PWs)   bands (ev):

  -111.4837-111.4835 -65.6978 -65.6966 -65.6946 -65.6930 -65.6925 -65.6910
    -6.4216  -6.1902   4.8462   4.8535   5.8949   6.0598   6.2431   6.3940
     7.4846   7.5587   7.6405   7.7728   8.0991   8.2031   9.6006   9.7375
    10.8841  11.0061  18.2869  19.1092  21.0271  22.2002  23.8190

     occupation numbers 
     1.0000   1.0000   1.0000   1.0000   1.0000   1.0000   1.0000   1.0000
     1.0000   1.0000   1.0000   1.0000   1.0000   1.0000   1.0000   1.0000
     1.0000   1.0000   1.0000   1.0000   1.0000   1.0000   1.0000   1.0000
     1.0000   1.0000   0.0000   0.0000   0.0000   0.0000   0.0000

          k = 0.0000-0.5774 0.2325 (  1574 PWs)   bands (ev):

  -111.4836-111.4836 -65.6980 -65.6973 -65.6937 -65.6929 -65.6922 -65.6914
    -6.3628  -6.2372   4.7230   4.7309   5.9898   6.0686   6.1665   6.2563
     7.5704   7.5981   7.6110   7.7435   8.1167   8.1595  10.0568  10.1387
    10.7357  10.8550  18.1604  18.7244  21.5120  22.1191  23.9627

     occupation numbers 
     1.0000   1.0000   1.0000   1.0000   1.0000   1.0000   1.0000   1.0000
     1.0000   1.0000   1.0000   1.0000   1.0000   1.0000   1.0000   1.0000
     1.0000   1.0000   1.0000   1.0000   1.0000   1.0000   1.0000   1.0000
     1.0000   1.0000   0.0000   0.0000   0.0000   0.0000   0.0000

          k = 0.0000-0.5774-0.3100 (  1564 PWs)   bands (ev):

  -111.4836-111.4836 -65.6977 -65.6977 -65.6931 -65.6931 -65.6917 -65.6917
    -6.2975  -6.2975   4.6782   4.6782   6.1056   6.1056   6.1144   6.1144
     7.5876   7.5876   7.6857   7.6857   8.1346   8.1346  10.4057  10.4057
    10.5983  10.5983  18.3443  18.3443  21.8775  21.8775  24.4873

     occupation numbers 
     1.0000   1.0000   1.0000   1.0000   1.0000   1.0000   1.0000   1.0000
     1.0000   1.0000   1.0000   1.0000   1.0000   1.0000   1.0000   1.0000
     1.0000   1.0000   1.0000   1.0000   1.0000   1.0000   1.0000   1.0000
     1.0000   1.0000   0.0000   0.0000   0.0000   0.0000   0.0000

          k = 0.0833 0.1443 0.0000 (  1603 PWs)   bands (ev):

  -111.4841-111.4836 -65.6994 -65.6921 -65.6917 -65.6915 -65.6905 -65.6897
    -7.3297  -6.3549   5.2293   5.2927   5.5723   5.6253   5.6951   5.8541
     7.2147   7.2743   7.6220   7.6671   7.9641  10.5749  10.8900  11.4651
    12.0203  12.1498  14.6489  19.2174  21.0892  24.3374  26.0443

     occupation numbers 
     1.0000   1.0000   1.0000   1.0000   1.0000   1.0000   1.0000   1.0000
     1.0000   1.0000   1.0000   1.0000   1.0000   1.0000   1.0000   1.0000
     1.0000   1.0000   1.0000   1.0000   1.0000   1.0000   1.0000   1.0000
     1.0000   1.0000   0.0000   0.0000   0.0000   0.0000   0.0000

          k = 0.0833 0.1443 0.0775 (  1605 PWs)   bands (ev):

  -111.4841-111.4837 -65.6991 -65.6921 -65.6920 -65.6914 -65.6905 -65.6898
    -7.2947  -6.3940   5.1554   5.2646   5.5710   5.6107   5.7059   5.8372
     7.2384   7.2922   7.6130   7.6530   8.1609  10.6197  10.9206  11.3453
    11.9806  12.1051  14.8356  18.9795  21.2665  24.3795  26.0449

     occupation numbers 
     1.0000   1.0000   1.0000   1.0000   1.0000   1.0000   1.0000   1.0000
     1.0000   1.0000   1.0000   1.0000   1.0000   1.0000   1.0000   1.0000
     1.0000   1.0000   1.0000   1.0000   1.0000   1.0000   1.0000   1.0000
     1.0000   1.0000   0.0000   0.0000   0.0000   0.0000   0.0000

          k = 0.0833 0.1443 0.1550 (  1595 PWs)   bands (ev):

  -111.4841-111.4837 -65.6983 -65.6930 -65.6917 -65.6912 -65.6905 -65.6899
    -7.1941  -6.5047   5.0248   5.1791   5.5832   5.5905   5.7003   5.7925
     7.3022   7.3398   7.5853   7.6169   8.6598  10.7508  10.8757  11.1961
    11.8190  11.9775  15.3413  18.4054  21.6972  24.4423  25.6693

     occupation numbers 
     1.0000   1.0000   1.0000   1.0000   1.0000   1.0000   1.0000   1.0000
     1.0000   1.0000   1.0000   1.0000   1.0000   1.0000   1.0000   1.0000
     1.0000   1.0000   1.0000   1.0000   1.0000   1.0000   1.0000   1.0000
     1.0000   1.0000   0.0000   0.0000   0.0000   0.0000   0.0000

          k = 0.0833 0.1443 0.2325 (  1595 PWs)   bands (ev):

  -111.4840-111.4838 -65.6971 -65.6943 -65.6914 -65.6910 -65.6906 -65.6902
    -7.0410  -6.6680   4.9505   5.0616   5.5923   5.6095   5.6736   5.7340
     7.3886   7.4051   7.5383   7.5582   9.2992  10.4893  10.9597  11.3297
    11.5496  11.7861  16.0507  17.6649  22.3039  23.9987  25.1718

     occupation numbers 
     1.0000   1.0000   1.0000   1.0000   1.0000   1.0000   1.0000   1.0000
     1.0000   1.0000   1.0000   1.0000   1.0000   1.0000   1.0000   1.0000
     1.0000   1.0000   1.0000   1.0000   1.0000   1.0000   1.0000   1.0000
     1.0000   1.0000   0.0000   0.0000   0.0000   0.0000   0.0000

          k = 0.0833 0.1443-0.3100 (  1596 PWs)   bands (ev):

  -111.4839-111.4839 -65.6957 -65.6957 -65.6911 -65.6911 -65.6905 -65.6905
    -6.8566  -6.8566   4.9688   4.9688   5.6129   5.6129   5.6805   5.6805
     7.4749   7.4749   7.4795   7.4795   9.9403   9.9403  11.2309  11.2309
    11.5624  11.5624  16.8543  16.8543  23.0905  23.0905  25.3990

     occupation numbers 
     1.0000   1.0000   1.0000   1.0000   1.0000   1.0000   1.0000   1.0000
     1.0000   1.0000   1.0000   1.0000   1.0000   1.0000   1.0000   1.0000
     1.0000   1.0000   1.0000   1.0000   1.0000   1.0000   1.0000   1.0000
     1.0000   1.0000   0.0000   0.0000   0.0000   0.0000   0.0000

          k = 0.0833 0.2406 0.0000 (  1596 PWs)   bands (ev):

  -111.4840-111.4836 -65.6988 -65.6931 -65.6923 -65.6920 -65.6915 -65.6900
    -7.1354  -6.2779   5.1177   5.3820   5.6447   5.7122   5.7960   6.0099
     7.1414   7.2829   7.6344   7.6910   8.0041   9.8220  10.3976  10.8948
    11.7913  11.8901  15.6341  20.1083  20.9888  23.1596  25.2449

     occupation numbers 
     1.0000   1.0000   1.0000   1.0000   1.0000   1.0000   1.0000   1.0000
     1.0000   1.0000   1.0000   1.0000   1.0000   1.0000   1.0000   1.0000
     1.0000   1.0000   1.0000   1.0000   1.0000   1.0000   1.0000   1.0000
     1.0000   1.0000   0.0000   0.0000   0.0000   0.0000   0.0000

          k = 0.0833 0.2406 0.0775 (  1599 PWs)   bands (ev):

  -111.4840-111.4836 -65.6986 -65.6930 -65.6928 -65.6920 -65.6913 -65.6902
    -7.1038  -6.3113   5.0864   5.2747   5.6393   5.7046   5.8112   5.9908
     7.1746   7.3029   7.6235   7.6933   8.1950   9.8724  10.4249  10.8350
    11.7617  11.8398  15.7509  19.7333  21.2649  23.2094  25.2864

     occupation numbers 
     1.0000   1.0000   1.0000   1.0000   1.0000   1.0000   1.0000   1.0000
     1.0000   1.0000   1.0000   1.0000   1.0000   1.0000   1.0000   1.0000
     1.0000   1.0000   1.0000   1.0000   1.0000   1.0000   1.0000   1.0000
     1.0000   1.0000   0.0000   0.0000   0.0000   0.0000   0.0000

          k = 0.0833 0.2406 0.1550 (  1601 PWs)   bands (ev):

  -111.4840-111.4837 -65.6980 -65.6938 -65.6927 -65.6918 -65.6912 -65.6903
    -7.0133  -6.4063   4.9995   5.0859   5.6484   5.6895   5.8091   5.9403
     7.2593   7.3499   7.5916   7.6580   8.6993  10.0192  10.4100  10.8010
    11.6041  11.6959  16.1085  19.0285  21.7281  23.3163  25.2015

     occupation numbers 
     1.0000   1.0000   1.0000   1.0000   1.0000   1.0000   1.0000   1.0000
     1.0000   1.0000   1.0000   1.0000   1.0000   1.0000   1.0000   1.0000
     1.0000   1.0000   1.0000   1.0000   1.0000   1.0000   1.0000   1.0000
     1.0000   1.0000   0.0000   0.0000   0.0000   0.0000   0.0000

          k = 0.0833 0.2406 0.2325 (  1593 PWs)   bands (ev):

  -111.4839-111.4837 -65.6971 -65.6949 -65.6923 -65.6917 -65.6911 -65.6906
    -6.8764  -6.5477   4.9049   4.9494   5.6639   5.6896   5.7956   5.8752
     7.3695   7.4116   7.5416   7.5842   9.2976  10.1006  10.3937  10.9588
    11.2635  11.4778  16.6895  18.2308  22.2544  23.2733  24.8175

     occupation numbers 
     1.0000   1.0000   1.0000   1.0000   1.0000   1.0000   1.0000   1.0000
     1.0000   1.0000   1.0000   1.0000   1.0000   1.0000   1.0000   1.0000
     1.0000   1.0000   1.0000   1.0000   1.0000   1.0000   1.0000   1.0000
     1.0000   1.0000   0.0000   0.0000   0.0000   0.0000   0.0000

          k = 0.0833 0.2406-0.3100 (  1592 PWs)   bands (ev):

  -111.4838-111.4838 -65.6960 -65.6960 -65.6919 -65.6919 -65.6909 -65.6909
    -6.7130  -6.7130   4.8834   4.8834   5.6819   5.6819   5.8175   5.8175
     7.4753   7.4753   7.4870   7.4870   9.7900   9.7900  10.7810  10.7810
    11.2244  11.2244  17.4253  17.4253  22.8324  22.8324  24.8570

     occupation numbers 
     1.0000   1.0000   1.0000   1.0000   1.0000   1.0000   1.0000   1.0000
     1.0000   1.0000   1.0000   1.0000   1.0000   1.0000   1.0000   1.0000
     1.0000   1.0000   1.0000   1.0000   1.0000   1.0000   1.0000   1.0000
     1.0000   1.0000   0.0000   0.0000   0.0000   0.0000   0.0000

          k = 0.0833 0.3368 0.0000 (  1591 PWs)   bands (ev):

  -111.4839-111.4835 -65.6980 -65.6944 -65.6935 -65.6926 -65.6922 -65.6905
    -6.8910  -6.1996   4.9794   5.4069   5.6879   5.8547   6.0812   6.2064
     7.0808   7.3360   7.6494   7.6674   8.1343   9.0107   9.9326  10.1992
    11.4490  11.5848  16.7376  20.5288  21.1120  22.2324  24.7064

     occupation numbers 
     1.0000   1.0000   1.0000   1.0000   1.0000   1.0000   1.0000   1.0000
     1.0000   1.0000   1.0000   1.0000   1.0000   1.0000   1.0000   1.0000
     1.0000   1.0000   1.0000   1.0000   1.0000   1.0000   1.0000   1.0000
     1.0000   1.0000   0.0000   0.0000   0.0000   0.0000   0.0000

          k = 0.0833 0.3368 0.0775 (  1594 PWs)   bands (ev):

  -111.4839-111.4836 -65.6980 -65.6943 -65.6939 -65.6925 -65.6920 -65.6906
    -6.8644  -6.2252   4.9501   5.2982   5.6983   5.8412   6.0455   6.1821
     7.1269   7.3606   7.6388   7.7123   8.2736   9.0773   9.9583  10.1736
    11.4490  11.5309  16.7896  20.1162  21.4148  22.2706  24.7592

     occupation numbers 
     1.0000   1.0000   1.0000   1.0000   1.0000   1.0000   1.0000   1.0000
     1.0000   1.0000   1.0000   1.0000   1.0000   1.0000   1.0000   1.0000
     1.0000   1.0000   1.0000   1.0000   1.0000   1.0000   1.0000   1.0000
     1.0000   1.0000   0.0000   0.0000   0.0000   0.0000   0.0000

          k = 0.0833 0.3368 0.1550 (  1589 PWs)   bands (ev):

  -111.4839-111.4836 -65.6976 -65.6948 -65.6937 -65.6924 -65.6918 -65.6907
    -6.7886  -6.2986   4.8776   5.0770   5.7255   5.8206   5.9855   6.1187
     7.2342   7.4029   7.6065   7.7047   8.6756   9.2841   9.9175  10.2674
    11.3403  11.4027  16.9841  19.4289  21.8105  22.3781  24.6282

     occupation numbers 
     1.0000   1.0000   1.0000   1.0000   1.0000   1.0000   1.0000   1.0000
     1.0000   1.0000   1.0000   1.0000   1.0000   1.0000   1.0000   1.0000
     1.0000   1.0000   1.0000   1.0000   1.0000   1.0000   1.0000   1.0000
     1.0000   1.0000   0.0000   0.0000   0.0000   0.0000   0.0000

          k = 0.0833 0.3368 0.2325 (  1590 PWs)   bands (ev):

  -111.4838-111.4837 -65.6972 -65.6958 -65.6931 -65.6924 -65.6916 -65.6910
    -6.6753  -6.4097   4.8084   4.8916   5.7607   5.8123   5.9461   6.0375
     7.3662   7.4513   7.5606   7.6222   9.0496   9.4568  10.0493  10.5067
    11.0762  11.1512  17.3811  18.6866  22.1499  22.4774  24.4411

     occupation numbers 
     1.0000   1.0000   1.0000   1.0000   1.0000   1.0000   1.0000   1.0000
     1.0000   1.0000   1.0000   1.0000   1.0000   1.0000   1.0000   1.0000
     1.0000   1.0000   1.0000   1.0000   1.0000   1.0000   1.0000   1.0000
     1.0000   1.0000   0.0000   0.0000   0.0000   0.0000   0.0000

          k = 0.0833 0.3368-0.3100 (  1588 PWs)   bands (ev):

  -111.4837-111.4837 -65.6966 -65.6966 -65.6927 -65.6927 -65.6913 -65.6913
    -6.5421  -6.5421   4.8014   4.8014   5.7940   5.7940   5.9669   5.9669
     7.4883   7.4883   7.5199   7.5199   9.3063   9.3063  10.5562  10.5562
    10.8596  10.8596  17.9738  17.9738  22.4027  22.4027  24.5907

     occupation numbers 
     1.0000   1.0000   1.0000   1.0000   1.0000   1.0000   1.0000   1.0000
     1.0000   1.0000   1.0000   1.0000   1.0000   1.0000   1.0000   1.0000
     1.0000   1.0000   1.0000   1.0000   1.0000   1.0000   1.0000   1.0000
     1.0000   1.0000   0.0000   0.0000   0.0000   0.0000   0.0000

          k = 0.0833 0.4330 0.0000 (  1580 PWs)   bands (ev):

  -111.4838-111.4835 -65.6972 -65.6955 -65.6946 -65.6932 -65.6927 -65.6908
    -6.6496  -6.1522   4.9407   5.3286   5.7515   5.9788   6.3275   6.3964
     7.1555   7.3936   7.6710   7.7092   8.1166   8.5454   9.4586   9.5654
    11.0353  11.3120  17.8514  20.3103  20.7780  22.0821  24.3742

     occupation numbers 
     1.0000   1.0000   1.0000   1.0000   1.0000   1.0000   1.0000   1.0000
     1.0000   1.0000   1.0000   1.0000   1.0000   1.0000   1.0000   1.0000
     1.0000   1.0000   1.0000   1.0000   1.0000   1.0000   1.0000   1.0000
     1.0000   1.0000   0.0000   0.0000   0.0000   0.0000   0.0000

          k = 0.0833 0.4330 0.0775 (  1579 PWs)   bands (ev):

  -111.4838-111.4835 -65.6974 -65.6953 -65.6948 -65.6930 -65.6925 -65.6909
    -6.6292  -6.1692   4.9076   5.2369   5.7645   5.9630   6.2672   6.3635
     7.1877   7.4390   7.6603   7.7672   8.1374   8.6625   9.4526   9.6366
    11.0642  11.2570  17.8257  19.9899  21.0751  22.0999  24.2825

     occupation numbers 
     1.0000   1.0000   1.0000   1.0000   1.0000   1.0000   1.0000   1.0000
     1.0000   1.0000   1.0000   1.0000   1.0000   1.0000   1.0000   1.0000
     1.0000   1.0000   1.0000   1.0000   1.0000   1.0000   1.0000   1.0000
     1.0000   1.0000   0.0000   0.0000   0.0000   0.0000   0.0000

          k = 0.0833 0.4330 0.1550 (  1584 PWs)   bands (ev):

  -111.4838-111.4836 -65.6976 -65.6959 -65.6944 -65.6928 -65.6922 -65.6911
    -6.5715  -6.2187   4.8284   5.0340   5.8038   5.9395   6.1668   6.2806
     7.2838   7.4846   7.6328   7.7711   8.2939   8.8584   9.5640   9.8485
    11.0168  11.1530  17.8228  19.4748  21.4879  22.1412  24.0885

     occupation numbers 
     1.0000   1.0000   1.0000   1.0000   1.0000   1.0000   1.0000   1.0000
     1.0000   1.0000   1.0000   1.0000   1.0000   1.0000   1.0000   1.0000
     1.0000   1.0000   1.0000   1.0000   1.0000   1.0000   1.0000   1.0000
     1.0000   1.0000   0.0000   0.0000   0.0000   0.0000   0.0000

          k = 0.0833 0.4330 0.2325 (  1583 PWs)   bands (ev):

  -111.4837-111.4836 -65.6975 -65.6966 -65.6936 -65.6928 -65.6920 -65.6913
    -6.4867  -6.2953   4.7566   4.8485   5.8622   5.9309   6.0961   6.1775
     7.4077   7.5151   7.6015   7.6862   8.5011   8.8368   9.9842  10.1680
    10.7742  10.9981  17.9837  18.9056  21.8314  22.1535  24.0531

     occupation numbers 
     1.0000   1.0000   1.0000   1.0000   1.0000   1.0000   1.0000   1.0000
     1.0000   1.0000   1.0000   1.0000   1.0000   1.0000   1.0000   1.0000
     1.0000   1.0000   1.0000   1.0000   1.0000   1.0000   1.0000   1.0000
     1.0000   1.0000   0.0000   0.0000   0.0000   0.0000   0.0000

          k = 0.0833 0.4330-0.3100 (  1578 PWs)   bands (ev):

  -111.4837-111.4837 -65.6972 -65.6972 -65.6931 -65.6931 -65.6916 -65.6916
    -6.3893  -6.3893   4.7524   4.7524   5.9141   5.9141   6.0972   6.0972
     7.5106   7.5106   7.5999   7.5999   8.6891   8.6891  10.3779  10.3779
    10.6682  10.6682  18.3679  18.3679  22.0573  22.0573  24.3650

     occupation numbers 
     1.0000   1.0000   1.0000   1.0000   1.0000   1.0000   1.0000   1.0000
     1.0000   1.0000   1.0000   1.0000   1.0000   1.0000   1.0000   1.0000
     1.0000   1.0000   1.0000   1.0000   1.0000   1.0000   1.0000   1.0000
     1.0000   1.0000   0.0000   0.0000   0.0000   0.0000   0.0000

          k = 0.0833 0.5292 0.0000 (  1594 PWs)   bands (ev):

  -111.4837-111.4835 -65.6968 -65.6961 -65.6953 -65.6937 -65.6929 -65.6911
    -6.4821  -6.1489   5.0139   5.1991   5.7874   6.0555   6.3698   6.5370
     7.2913   7.4577   7.6893   7.7884   8.0220   8.4706   8.8868   9.3911
    10.7016  11.1477  18.8712  19.9524  20.1379  22.1426  24.0827

     occupation numbers 
     1.0000   1.0000   1.0000   1.0000   1.0000   1.0000   1.0000   1.0000
     1.0000   1.0000   1.0000   1.0000   1.0000   1.0000   1.0000   1.0000
     1.0000   1.0000   1.0000   1.0000   1.0000   1.0000   1.0000   1.0000
     1.0000   1.0000   0.0000   0.0000   0.0000   0.0000   0.0000

          k = 0.0833 0.5292 0.0775 (  1583 PWs)   bands (ev):

  -111.4837-111.4835 -65.6972 -65.6958 -65.6954 -65.6934 -65.6928 -65.6911
    -6.4672  -6.1590   4.9711   5.1245   5.8011   6.0416   6.3344   6.4930
     7.3322   7.4832   7.6794   7.8080   8.0153   8.4496   9.0431   9.4885
    10.7467  11.0917  18.6940  19.6947  20.5456  22.1709  23.9503

     occupation numbers 
     1.0000   1.0000   1.0000   1.0000   1.0000   1.0000   1.0000   1.0000
     1.0000   1.0000   1.0000   1.0000   1.0000   1.0000   1.0000   1.0000
     1.0000   1.0000   1.0000   1.0000   1.0000   1.0000   1.0000   1.0000
     1.0000   1.0000   0.0000   0.0000   0.0000   0.0000   0.0000

          k = 0.0833 0.5292 0.1550 (  1575 PWs)   bands (ev):

  -111.4837-111.4835 -65.6977 -65.6965 -65.6945 -65.6930 -65.6926 -65.6912
    -6.4255  -6.1890   4.8670   4.9583   5.8447   6.0222   6.2615   6.3870
     7.4183   7.5211   7.6647   7.8199   8.0406   8.3940   9.4145   9.7757
    10.7649  10.9796  18.4232  19.3692  21.0767  22.2140  23.7287

     occupation numbers 
     1.0000   1.0000   1.0000   1.0000   1.0000   1.0000   1.0000   1.0000
     1.0000   1.0000   1.0000   1.0000   1.0000   1.0000   1.0000   1.0000
     1.0000   1.0000   1.0000   1.0000   1.0000   1.0000   1.0000   1.0000
     1.0000   1.0000   0.0000   0.0000   0.0000   0.0000   0.0000

          k = 0.0833 0.5292 0.2325 (  1568 PWs)   bands (ev):

  -111.4836-111.4836 -65.6978 -65.6972 -65.6937 -65.6930 -65.6922 -65.6915
    -6.3656  -6.2372   4.7663   4.8066   5.9151   6.0126   6.1992   6.2655
     7.4948   7.5404   7.6730   7.7800   8.1236   8.3151   9.8215  10.2089
    10.5495  10.8938  18.3526  18.9584  21.5390  22.1414  23.7643

     occupation numbers 
     1.0000   1.0000   1.0000   1.0000   1.0000   1.0000   1.0000   1.0000
     1.0000   1.0000   1.0000   1.0000   1.0000   1.0000   1.0000   1.0000
     1.0000   1.0000   1.0000   1.0000   1.0000   1.0000   1.0000   1.0000
     1.0000   1.0000   0.0000   0.0000   0.0000   0.0000   0.0000

          k = 0.0833 0.5292-0.3100 (  1574 PWs)   bands (ev):

  -111.4836-111.4836 -65.6977 -65.6977 -65.6932 -65.6932 -65.6918 -65.6918
    -6.2990  -6.2990   4.7365   4.7365   5.9856   5.9856   6.1881   6.1881
     7.5337   7.5337   7.7198   7.7198   8.2221   8.2221  10.1994  10.1994
    10.6457  10.6457  18.5624  18.5624  21.8984  21.8984  24.1790

     occupation numbers 
     1.0000   1.0000   1.0000   1.0000   1.0000   1.0000   1.0000   1.0000
     1.0000   1.0000   1.0000   1.0000   1.0000   1.0000   1.0000   1.0000
     1.0000   1.0000   1.0000   1.0000   1.0000   1.0000   1.0000   1.0000
     1.0000   1.0000   0.0000   0.0000   0.0000   0.0000   0.0000

          k = 0.1667 0.2887 0.0000 (  1593 PWs)   bands (ev):

  -111.4839-111.4836 -65.6981 -65.6940 -65.6935 -65.6925 -65.6920 -65.6906
    -6.9263  -6.2089   5.0729   5.3428   5.7572   5.7799   6.0008   6.1864
     7.1002   7.3023   7.6466   7.6883   8.1209   9.2848   9.7400  10.3528
    11.5253  11.5300  16.6432  20.5488  21.3039  22.4289  24.4642

     occupation numbers 
     1.0000   1.0000   1.0000   1.0000   1.0000   1.0000   1.0000   1.0000
     1.0000   1.0000   1.0000   1.0000   1.0000   1.0000   1.0000   1.0000
     1.0000   1.0000   1.0000   1.0000   1.0000   1.0000   1.0000   1.0000
     1.0000   1.0000   0.0000   0.0000   0.0000   0.0000   0.0000

          k = 0.1667 0.2887 0.0775 (  1593 PWs)   bands (ev):

  -111.4839-111.4836 -65.6980 -65.6938 -65.6938 -65.6926 -65.6918 -65.6907
    -6.8989  -6.2357   5.0413   5.2597   5.7450   5.7484   5.9856   6.1639
     7.1387   7.3386   7.6352   7.7234   8.2721   9.3514   9.7766  10.3076
    11.4701  11.5229  16.7113  20.1789  21.5278  22.4776  24.6459

     occupation numbers 
     1.0000   1.0000   1.0000   1.0000   1.0000   1.0000   1.0000   1.0000
     1.0000   1.0000   1.0000   1.0000   1.0000   1.0000   1.0000   1.0000
     1.0000   1.0000   1.0000   1.0000   1.0000   1.0000   1.0000   1.0000
     1.0000   1.0000   0.0000   0.0000   0.0000   0.0000   0.0000

          k = 0.1667 0.2887 0.1550 (  1595 PWs)   bands (ev):

  -111.4839-111.4836 -65.6977 -65.6946 -65.6934 -65.6925 -65.6916 -65.6909
    -6.8208  -6.3125   4.9607   5.0684   5.7247   5.7248   5.9579   6.1048
     7.2379   7.3927   7.6038   7.7068   8.7093   9.5730   9.8054  10.2812
    11.3012  11.4352  16.9443  19.4927  21.8634  22.5947  24.9060

     occupation numbers 
     1.0000   1.0000   1.0000   1.0000   1.0000   1.0000   1.0000   1.0000
     1.0000   1.0000   1.0000   1.0000   1.0000   1.0000   1.0000   1.0000
     1.0000   1.0000   1.0000   1.0000   1.0000   1.0000   1.0000   1.0000
     1.0000   1.0000   0.0000   0.0000   0.0000   0.0000   0.0000

          k = 0.1667 0.2887 0.2325 (  1594 PWs)   bands (ev):

  -111.4838-111.4837 -65.6971 -65.6956 -65.6929 -65.6925 -65.6915 -65.6912
    -6.7038  -6.4283   4.8750   4.9057   5.7180   5.7258   5.9438   6.0309
     7.3663   7.4458   7.5590   7.6230   9.1506   9.6811  10.0110  10.4355
    11.0555  11.1516  17.3816  18.7357  22.2108  22.6699  24.5666

     occupation numbers 
     1.0000   1.0000   1.0000   1.0000   1.0000   1.0000   1.0000   1.0000
     1.0000   1.0000   1.0000   1.0000   1.0000   1.0000   1.0000   1.0000
     1.0000   1.0000   1.0000   1.0000   1.0000   1.0000   1.0000   1.0000
     1.0000   1.0000   0.0000   0.0000   0.0000   0.0000   0.0000

          k = 0.1667 0.2887-0.3100 (  1592 PWs)   bands (ev):

  -111.4837-111.4837 -65.6965 -65.6965 -65.6925 -65.6925 -65.6913 -65.6913
    -6.5658  -6.5658   4.8423   4.8423   5.7236   5.7236   5.9688   5.9688
     7.4833   7.4833   7.5222   7.5222   9.4562   9.4562  10.5261  10.5261
    10.8332  10.8332  18.0035  18.0035  22.5310  22.5310  24.4660

     occupation numbers 
     1.0000   1.0000   1.0000   1.0000   1.0000   1.0000   1.0000   1.0000
     1.0000   1.0000   1.0000   1.0000   1.0000   1.0000   1.0000   1.0000
     1.0000   1.0000   1.0000   1.0000   1.0000   1.0000   1.0000   1.0000
     1.0000   1.0000   0.0000   0.0000   0.0000   0.0000   0.0000

          k = 0.1667 0.3849 0.0000 (  1580 PWs)   bands (ev):

  -111.4838-111.4835 -65.6973 -65.6948 -65.6944 -65.6930 -65.6927 -65.6912
    -6.6936  -6.1562   5.0675   5.3414   5.7691   5.9193   6.2497   6.3647
     7.0849   7.3323   7.6702   7.7413   8.1971   8.7847   9.2458   9.6679
    11.1149  11.1974  17.7810  20.3749  21.6281  22.0381  24.3232

     occupation numbers 
     1.0000   1.0000   1.0000   1.0000   1.0000   1.0000   1.0000   1.0000
     1.0000   1.0000   1.0000   1.0000   1.0000   1.0000   1.0000   1.0000
     1.0000   1.0000   1.0000   1.0000   1.0000   1.0000   1.0000   1.0000
     1.0000   1.0000   0.0000   0.0000   0.0000   0.0000   0.0000

          k = 0.1667 0.3849 0.0775 (  1585 PWs)   bands (ev):

  -111.4838-111.4835 -65.6974 -65.6949 -65.6944 -65.6931 -65.6924 -65.6913
    -6.6718  -6.1749   5.0318   5.2742   5.7560   5.8858   6.1889   6.3354
     7.1278   7.4023   7.6602   7.7893   8.2496   8.9003   9.3111   9.6327
    11.0709  11.2029  17.7986  20.1827  21.7133  22.0588  24.4075

     occupation numbers 
     1.0000   1.0000   1.0000   1.0000   1.0000   1.0000   1.0000   1.0000
     1.0000   1.0000   1.0000   1.0000   1.0000   1.0000   1.0000   1.0000
     1.0000   1.0000   1.0000   1.0000   1.0000   1.0000   1.0000   1.0000
     1.0000   1.0000   0.0000   0.0000   0.0000   0.0000   0.0000

          k = 0.1667 0.3849 0.1550 (  1590 PWs)   bands (ev):

  -111.4838-111.4836 -65.6975 -65.6956 -65.6940 -65.6931 -65.6921 -65.6914
    -6.6104  -6.2293   4.9444   5.0982   5.7465   5.8346   6.1173   6.2603
     7.2376   7.4714   7.6367   7.7862   8.4682   9.1534   9.4844   9.6555
    10.8946  11.1985  17.8932  19.7214  21.8971  22.1219  24.2213

     occupation numbers 
     1.0000   1.0000   1.0000   1.0000   1.0000   1.0000   1.0000   1.0000
     1.0000   1.0000   1.0000   1.0000   1.0000   1.0000   1.0000   1.0000
     1.0000   1.0000   1.0000   1.0000   1.0000   1.0000   1.0000   1.0000
     1.0000   1.0000   0.0000   0.0000   0.0000   0.0000   0.0000

          k = 0.1667 0.3849 0.2325 (  1586 PWs)   bands (ev):

  -111.4837-111.4836 -65.6973 -65.6964 -65.6934 -65.6930 -65.6919 -65.6916
    -6.5197  -6.3129   4.8602   4.9250   5.7623   5.8057   6.0862   6.1712
     7.3743   7.5052   7.6117   7.6958   8.7214   9.1201   9.8573   9.9654
    10.6505  11.0369  18.1461  19.1485  22.0870  22.2016  23.9691

     occupation numbers 
     1.0000   1.0000   1.0000   1.0000   1.0000   1.0000   1.0000   1.0000
     1.0000   1.0000   1.0000   1.0000   1.0000   1.0000   1.0000   1.0000
     1.0000   1.0000   1.0000   1.0000   1.0000   1.0000   1.0000   1.0000
     1.0000   1.0000   0.0000   0.0000   0.0000   0.0000   0.0000

          k = 0.1667 0.3849-0.3100 (  1582 PWs)   bands (ev):

  -111.4837-111.4837 -65.6969 -65.6969 -65.6930 -65.6930 -65.6918 -65.6918
    -6.4148  -6.4148   4.8416   4.8416   5.7859   5.7859   6.1044   6.1044
     7.4892   7.4892   7.6117   7.6117   8.9407   8.9407  10.1412  10.1412
    10.6921  10.6921  18.5860  18.5860  22.2069  22.2070  23.9847

     occupation numbers 
     1.0000   1.0000   1.0000   1.0000   1.0000   1.0000   1.0000   1.0000
     1.0000   1.0000   1.0000   1.0000   1.0000   1.0000   1.0000   1.0000
     1.0000   1.0000   1.0000   1.0000   1.0000   1.0000   1.0000   1.0000
     1.0000   1.0000   0.0000   0.0000   0.0000   0.0000   0.0000

          k = 0.1667 0.4811 0.0000 (  1577 PWs)   bands (ev):

  -111.4837-111.4835 -65.6966 -65.6957 -65.6949 -65.6936 -65.6932 -65.6915
    -6.4915  -6.1443   5.1240   5.3720   5.7571   5.9907   6.4128   6.5236
     7.1949   7.3124   7.6950   7.7746   8.0614   8.6219   8.8177   9.3093
[...]
    -6.4961  -6.1421   5.2865   5.3030   5.8542   5.9307   6.4416   6.4917
     7.0890   7.2816   7.6961   7.7611   8.1326   8.5160   9.0442   9.1321
    10.7070  10.7835  18.9556  20.1614  21.4868  22.0957  24.4367

     occupation numbers 
     1.0000   1.0000   1.0000   1.0000   1.0000   1.0000   1.0000   1.0000
     1.0000   1.0000   1.0000   1.0000   1.0000   1.0000   1.0000   1.0000
     1.0000   1.0000   1.0000   1.0000   1.0000   1.0000   1.0000   1.0000
     1.0000   1.0000   0.0000   0.0000   0.0000   0.0000   0.0000

          k = 0.2500 0.4330 0.0775 (  1574 PWs)   bands (ev):

  -111.4837-111.4835 -65.6968 -65.6955 -65.6945 -65.6939 -65.6928 -65.6920
    -6.4805  -6.1531   5.2325   5.2739   5.8456   5.8554   6.3622   6.4542
     7.1345   7.3954   7.6899   7.8377   8.0907   8.5999   9.0964   9.1878
    10.6363  10.8388  18.9454  20.0976  21.5189  22.1367  24.0576

     occupation numbers 
     1.0000   1.0000   1.0000   1.0000   1.0000   1.0000   1.0000   1.0000
     1.0000   1.0000   1.0000   1.0000   1.0000   1.0000   1.0000   1.0000
     1.0000   1.0000   1.0000   1.0000   1.0000   1.0000   1.0000   1.0000
     1.0000   1.0000   0.0000   0.0000   0.0000   0.0000   0.0000

          k = 0.2500 0.4330 0.1550 (  1578 PWs)   bands (ev):

  -111.4837-111.4835 -65.6971 -65.6961 -65.6939 -65.6939 -65.6924 -65.6921
    -6.4368  -6.1856   5.1082   5.1676   5.7409   5.8240   6.2793   6.3678
     7.2432   7.4863   7.6877   7.9567   8.1085   8.7576   9.0665   9.5493
    10.4569  10.9300  18.9506  19.9096  21.6137  22.2207  23.4749

     occupation numbers 
     1.0000   1.0000   1.0000   1.0000   1.0000   1.0000   1.0000   1.0000
     1.0000   1.0000   1.0000   1.0000   1.0000   1.0000   1.0000   1.0000
     1.0000   1.0000   1.0000   1.0000   1.0000   1.0000   1.0000   1.0000
     1.0000   1.0000   0.0000   0.0000   0.0000   0.0000   0.0000

          k = 0.2500 0.4330 0.2325 (  1585 PWs)   bands (ev):

  -111.4837-111.4836 -65.6973 -65.6967 -65.6937 -65.6934 -65.6923 -65.6923
    -6.3738  -6.2374   4.9933   5.0267   5.7158   5.7906   6.2403   6.2841
     7.3630   7.4932   7.7101   7.8622   8.3479   8.7185   9.2779   9.8196
    10.3832  10.9081  19.0514  19.6170  21.7717  22.2058  23.1251

     occupation numbers 
     1.0000   1.0000   1.0000   1.0000   1.0000   1.0000   1.0000   1.0000
     1.0000   1.0000   1.0000   1.0000   1.0000   1.0000   1.0000   1.0000
     1.0000   1.0000   1.0000   1.0000   1.0000   1.0000   1.0000   1.0000
     1.0000   1.0000   0.0000   0.0000   0.0000   0.0000   0.0000

          k = 0.2500 0.4330-0.3100 (  1578 PWs)   bands (ev):

  -111.4836-111.4836 -65.6971 -65.6971 -65.6934 -65.6934 -65.6922 -65.6922
    -6.3033  -6.3033   4.9565   4.9565   5.7477   5.7477   6.2395   6.2395
     7.4519   7.4519   7.7692   7.7692   8.5569   8.5569   9.6045   9.6045
    10.6842  10.6842  19.2926  19.2926  21.9936  21.9936  23.2198

     occupation numbers 
     1.0000   1.0000   1.0000   1.0000   1.0000   1.0000   1.0000   1.0000
     1.0000   1.0000   1.0000   1.0000   1.0000   1.0000   1.0000   1.0000
     1.0000   1.0000   1.0000   1.0000   1.0000   1.0000   1.0000   1.0000
     1.0000   1.0000   0.0000   0.0000   0.0000   0.0000   0.0000

          k = 0.2500 0.5292 0.0000 (  1586 PWs)   bands (ev):

  -111.4836-111.4835 -65.6960 -65.6955 -65.6949 -65.6943 -65.6939 -65.6924
    -6.3463  -6.1685   5.2894   5.5922   5.8133   5.9419   6.5178   6.6292
     7.1946   7.2397   7.5207   7.5879   8.0636   8.3605   8.6953   9.5084
    10.2522  10.5086  20.0078  20.0829  21.0050  21.8822  24.1309

     occupation numbers 
     1.0000   1.0000   1.0000   1.0000   1.0000   1.0000   1.0000   1.0000
     1.0000   1.0000   1.0000   1.0000   1.0000   1.0000   1.0000   1.0000
     1.0000   1.0000   1.0000   1.0000   1.0000   1.0000   1.0000   1.0000
     1.0000   1.0000   0.0000   0.0000   0.0000   0.0000   0.0000

          k = 0.2500 0.5292 0.0775 (  1577 PWs)   bands (ev):

  -111.4836-111.4835 -65.6964 -65.6957 -65.6948 -65.6940 -65.6934 -65.6924
    -6.3369  -6.1724   5.2784   5.5086   5.7411   5.9248   6.4776   6.5560
     7.1993   7.3633   7.5776   7.6187   8.1486   8.3436   8.6675   9.6272
    10.2356  10.5330  19.8885  20.1841  21.0327  21.9206  23.7582

     occupation numbers 
     1.0000   1.0000   1.0000   1.0000   1.0000   1.0000   1.0000   1.0000
     1.0000   1.0000   1.0000   1.0000   1.0000   1.0000   1.0000   1.0000
     1.0000   1.0000   1.0000   1.0000   1.0000   1.0000   1.0000   1.0000
     1.0000   1.0000   0.0000   0.0000   0.0000   0.0000   0.0000

          k = 0.2500 0.5292 0.1550 (  1579 PWs)   bands (ev):

  -111.4836-111.4835 -65.6969 -65.6963 -65.6945 -65.6935 -65.6930 -65.6925
    -6.3110  -6.1847   5.2192   5.3251   5.6295   5.8691   6.4171   6.4567
     7.2587   7.4099   7.7016   7.7982   8.1853   8.4275   8.6517   9.8438
    10.1597  10.6627  19.7785  20.2116  21.1439  22.0249  23.0407

     occupation numbers 
     1.0000   1.0000   1.0000   1.0000   1.0000   1.0000   1.0000   1.0000
     1.0000   1.0000   1.0000   1.0000   1.0000   1.0000   1.0000   1.0000
     1.0000   1.0000   1.0000   1.0000   1.0000   1.0000   1.0000   1.0000
     1.0000   1.0000   0.0000   0.0000   0.0000   0.0000   0.0000

          k = 0.2500 0.5292 0.2325 (  1582 PWs)   bands (ev):

  -111.4836-111.4836 -65.6973 -65.6970 -65.6942 -65.6934 -65.6927 -65.6924
    -6.2754  -6.2068   5.1189   5.1543   5.6206   5.7801   6.3812   6.3966
     7.3160   7.3947   7.8255   8.0015   8.1207   8.3867   8.9128   9.6493
    10.4204  10.7647  19.7662  20.0863  21.3633  22.0352  22.5673

     occupation numbers 
     1.0000   1.0000   1.0000   1.0000   1.0000   1.0000   1.0000   1.0000
     1.0000   1.0000   1.0000   1.0000   1.0000   1.0000   1.0000   1.0000
     1.0000   1.0000   1.0000   1.0000   1.0000   1.0000   1.0000   1.0000
     1.0000   1.0000   0.0000   0.0000   0.0000   0.0000   0.0000

          k = 0.2500 0.5292-0.3100 (  1580 PWs)   bands (ev):

  -111.4836-111.4836 -65.6973 -65.6973 -65.6937 -65.6937 -65.6924 -65.6924
    -6.2383  -6.2383   5.0792   5.0792   5.6862   5.6862   6.3737   6.3737
     7.3613   7.3613   7.9509   7.9509   8.2443   8.2443   9.2863   9.2863
    10.6893  10.6893  19.8899  19.8899  21.6823  21.6823  22.7560

     occupation numbers 
     1.0000   1.0000   1.0000   1.0000   1.0000   1.0000   1.0000   1.0000
     1.0000   1.0000   1.0000   1.0000   1.0000   1.0000   1.0000   1.0000
     1.0000   1.0000   1.0000   1.0000   1.0000   1.0000   1.0000   1.0000
     1.0000   1.0000   0.0000   0.0000   0.0000   0.0000   0.0000

          k = 0.3333 0.5774 0.0000 (  1572 PWs)   bands (ev):

  -111.4836-111.4836 -65.6952 -65.6952 -65.6950 -65.6944 -65.6944 -65.6928
    -6.2353  -6.2353   5.3279   5.8071   5.8071   5.9703   6.6181   6.6181
     7.1365   7.2973   7.2973   7.3678   8.0087   8.5351   8.5351   9.9766
     9.9766  10.1229  19.9481  20.9487  21.1977  21.1977  24.1611

     occupation numbers 
     1.0000   1.0000   1.0000   1.0000   1.0000   1.0000   1.0000   1.0000
     1.0000   1.0000   1.0000   1.0000   1.0000   1.0000   1.0000   1.0000
     1.0000   1.0000   1.0000   1.0000   1.0000   1.0000   1.0000   1.0000
     1.0000   1.0000   0.0000   0.0000   0.0000   0.0000   0.0000

          k = 0.3333 0.5774 0.0775 (  1596 PWs)   bands (ev):

  -111.4836-111.4836 -65.6959 -65.6959 -65.6951 -65.6939 -65.6939 -65.6930
    -6.2324  -6.2324   5.3430   5.7060   5.7060   5.9268   6.5661   6.5661
     7.1505   7.3604   7.4361   7.4361   8.0924   8.4985   8.4985  10.0355
    10.0827  10.0827  20.0179  20.9314  21.1912  21.1912  23.8433

     occupation numbers 
     1.0000   1.0000   1.0000   1.0000   1.0000   1.0000   1.0000   1.0000
     1.0000   1.0000   1.0000   1.0000   1.0000   1.0000   1.0000   1.0000
     1.0000   1.0000   1.0000   1.0000   1.0000   1.0000   1.0000   1.0000
     1.0000   1.0000   0.0000   0.0000   0.0000   0.0000   0.0000

          k = 0.3333 0.5774 0.1550 (  1572 PWs)   bands (ev):

  -111.4836-111.4836 -65.6965 -65.6965 -65.6948 -65.6931 -65.6931 -65.6931
    -6.2253  -6.2253   5.3884   5.4885   5.4885   5.8195   6.5047   6.5047
     7.1840   7.3395   7.6910   7.6910   8.3244   8.4073   8.4073   9.7935
    10.3360  10.3360  20.1976  20.8767  21.1714  21.1714  23.2136

     occupation numbers 
     1.0000   1.0000   1.0000   1.0000   1.0000   1.0000   1.0000   1.0000
     1.0000   1.0000   1.0000   1.0000   1.0000   1.0000   1.0000   1.0000
     1.0000   1.0000   1.0000   1.0000   1.0000   1.0000   1.0000   1.0000
     1.0000   1.0000   0.0000   0.0000   0.0000   0.0000   0.0000

          k = 0.3333 0.5774 0.2325 (  1578 PWs)   bands (ev):

  -111.4836-111.4836 -65.6970 -65.6970 -65.6945 -65.6935 -65.6927 -65.6927
    -6.2181  -6.2181   5.3007   5.3007   5.4634   5.6895   6.4731   6.4731
     7.2252   7.3074   7.9238   7.9238   8.2863   8.2863   8.6601   9.4459
    10.5890  10.5890  20.4196  20.7763  21.1422  21.1423  22.6944

     occupation numbers 
     1.0000   1.0000   1.0000   1.0000   1.0000   1.0000   1.0000   1.0000
     1.0000   1.0000   1.0000   1.0000   1.0000   1.0000   1.0000   1.0000
     1.0000   1.0000   1.0000   1.0000   1.0000   1.0000   1.0000   1.0000
     1.0000   1.0000   0.0000   0.0000   0.0000   0.0000   0.0000

          k = 0.3333 0.5774-0.3100 (  1596 PWs)   bands (ev):

  -111.4836-111.4836 -65.6973 -65.6973 -65.6941 -65.6941 -65.6926 -65.6926
    -6.2152  -6.2152   5.2297   5.2297   5.5658   5.5658   6.4634   6.4634
     7.2678   7.2678   8.0708   8.0708   8.1770   8.1770   9.0502   9.0502
    10.6944  10.6944  20.6227  20.6227  21.1254  21.1254  22.5017

     occupation numbers 
     1.0000   1.0000   1.0000   1.0000   1.0000   1.0000   1.0000   1.0000
     1.0000   1.0000   1.0000   1.0000   1.0000   1.0000   1.0000   1.0000
     1.0000   1.0000   1.0000   1.0000   1.0000   1.0000   1.0000   1.0000
     1.0000   1.0000   0.0000   0.0000   0.0000   0.0000   0.0000

     the Fermi energy is    13.0491 ev

!    total energy              =   -1006.47916591 Ry
     estimated scf accuracy    <          6.8E-09 Ry
     smearing contrib. (-TS)   =       0.00000003 Ry
     internal energy E=F+TS    =   -1006.47916594 Ry

     The total energy is F=E-TS. E is the sum of the following terms:
     one-electron contribution =    -749.38106737 Ry
     hartree contribution      =     402.48319578 Ry
     xc contribution           =     -99.96223218 Ry
     ewald contribution        =    -540.60692606 Ry
     one-center paw contrib.   =     -19.01213610 Ry
      -> PAW hartree energy AE =      55.60781824 Ry
      -> PAW hartree energy PS =     -55.33743037 Ry
      -> PAW xc energy AE      =     -33.86007683 Ry
      -> PAW xc energy PS      =      14.57755286 Ry
      -> total E_H with PAW    =     402.75358365 Ry
      -> total E_XC with PAW   =    -119.24475615 Ry

     convergence has been achieved in   9 iterations

     Forces acting on atoms (cartesian axes, Ry/au):

     atom    1 type  2   force =     0.00000000    0.00000000    0.00041663
     atom    2 type  2   force =    -0.00000000   -0.00000000    0.00041663
     atom    3 type  1   force =     0.00000000   -0.00000000   -0.00041663
     atom    4 type  1   force =     0.00000000    0.00000000   -0.00041663
     The non-local contrib.  to forces
     atom    1 type  2   force =     0.00000000   -0.00000000   -0.01603661
     atom    2 type  2   force =     0.00000000   -0.00000000   -0.01603661
     atom    3 type  1   force =     0.00000000   -0.00000000    0.00126432
     atom    4 type  1   force =     0.00000000    0.00000000    0.00126432
     The ionic contribution  to forces
     atom    1 type  2   force =    -0.00000070    0.00000040    0.09482592
     atom    2 type  2   force =     0.00000070   -0.00000040    0.09482592
     atom    3 type  1   force =    -0.00000060    0.00000035   -0.09482592
     atom    4 type  1   force =     0.00000060   -0.00000035   -0.09482592
     The local contribution  to forces
     atom    1 type  2   force =    -0.00000902    0.00000521   -0.07837501
     atom    2 type  2   force =     0.00002705   -0.00001562   -0.07837561
     atom    3 type  1   force =    -0.00000052    0.00000030    0.09317493
     atom    4 type  1   force =     0.00000155   -0.00000089    0.09317598
     The core correction contribution to forces
     atom    1 type  2   force =     0.00000000    0.00000000    0.00000000
     atom    2 type  2   force =     0.00000000    0.00000000    0.00000000
     atom    3 type  1   force =    -0.00000000    0.00000000   -0.00002688
     atom    4 type  1   force =     0.00000000   -0.00000000   -0.00002688
     The Hubbard contrib.    to forces
     atom    1 type  2   force =     0.00000000    0.00000000    0.00000000
     atom    2 type  2   force =     0.00000000    0.00000000    0.00000000
     atom    3 type  1   force =     0.00000000    0.00000000    0.00000000
     atom    4 type  1   force =     0.00000000    0.00000000    0.00000000
     The SCF correction term to forces
     atom    1 type  2   force =     0.00000000   -0.00000000    0.00000260
     atom    2 type  2   force =    -0.00000000    0.00000000    0.00000260
     atom    3 type  1   force =     0.00000000   -0.00000000   -0.00000362
     atom    4 type  1   force =    -0.00000000    0.00000000   -0.00000362

     Total force =     0.000833     Total SCF correction =     0.000006


     Computing stress (Cartesian axis) and pressure

          total   stress  (Ry/bohr**3)                   (kbar)     P=      481.19
   0.00327436  -0.00000000  -0.00000000          481.68       -0.00       -0.00
  -0.00000000   0.00327436  -0.00000000           -0.00      481.68       -0.00
  -0.00000000  -0.00000000   0.00326443           -0.00       -0.00      480.21

     kinetic stress (kbar)  42574.05      0.00      0.00
                                0.00  42574.05      0.00
                                0.00      0.00  42615.41

     local   stress (kbar)   3554.01     -0.00      0.00
                               -0.00   3554.01     -0.00
                                0.00     -0.00  -1739.23

     nonloc. stress (kbar)   -735.99     -0.00      0.00
                               -0.00   -735.99     -0.00
                                0.00     -0.00   -755.07

     hartree stress (kbar)  73460.70     -0.00     -0.00
                               -0.00  73460.70      0.00
                               -0.00      0.00  75944.22

     exc-cor stress (kbar) -17187.84      0.00     -0.00
                                0.00 -17187.84      0.00
                               -0.00      0.00 -17187.93

     corecor stress (kbar)   -471.76     -0.00      0.00
                               -0.00   -471.76     -0.00
                                0.00     -0.00   -471.78

     ewald   stress (kbar)-100711.49      0.00     -0.00
                                0.00-100711.49     -0.00
                               -0.00     -0.00 -97925.40

     hubbard stress (kbar)      0.00      0.00      0.00
                                0.00      0.00      0.00
                                0.00      0.00      0.00

     DFT-D   stress (kbar)      0.00      0.00      0.00
                                0.00      0.00      0.00
                                0.00      0.00      0.00

     XDM     stress (kbar)      0.00      0.00      0.00
                                0.00      0.00      0.00
                                0.00      0.00      0.00

     dft-nl  stress (kbar)      0.00      0.00      0.00
                                0.00      0.00      0.00
                                0.00      0.00      0.00

     TS-vdW  stress (kbar)      0.00      0.00      0.00
                                0.00      0.00      0.00
                                0.00      0.00      0.00

     MDB     stress (kbar)      0.00      0.00      0.00
                                0.00      0.00      0.00
                                0.00      0.00      0.00

     3D-RISM stress (kbar)      0.00      0.00      0.00
                                0.00      0.00      0.00
                                0.00      0.00      0.00


     Writing all to output data dir ./temp_hexag/aiida.save/ :
     XML data file, charge density, pseudopotentials, collected wavefunctions

     init_run     :    150.59s CPU      6.85s WALL (       1 calls)
     electrons    :   4295.61s CPU    195.29s WALL (       1 calls)
     forces       :     85.16s CPU      3.65s WALL (       1 calls)
     stress       :     40.91s CPU      2.20s WALL (       1 calls)

     Called by init_run:
     wfcinit      :    146.23s CPU      6.41s WALL (       1 calls)
     wfcinit:atom :      1.50s CPU      0.06s WALL (      95 calls)
     wfcinit:wfcr :    140.12s CPU      6.09s WALL (      95 calls)
     potinit      :      0.98s CPU      0.07s WALL (       1 calls)
     hinit0       :      1.54s CPU      0.24s WALL (       1 calls)

     Called by electrons:
     c_bands      :   3589.19s CPU    164.27s WALL (       9 calls)
     sum_band     :    688.55s CPU     29.47s WALL (       9 calls)
     v_of_rho     :      4.18s CPU      0.18s WALL (      10 calls)
     v_h          :      0.19s CPU      0.02s WALL (      10 calls)
     v_xc         :      4.50s CPU      0.19s WALL (      12 calls)
     newd         :      9.68s CPU      0.89s WALL (      10 calls)
     PAW_pot      :      3.74s CPU      0.18s WALL (      10 calls)
     mix_rho      :      0.72s CPU      0.05s WALL (       9 calls)

     Called by c_bands:
     init_us_2    :     29.23s CPU      1.46s WALL (    1995 calls)
     cegterg      :   3531.40s CPU    161.03s WALL (     855 calls)

     Called by sum_band:
     sum_band:wei :      0.20s CPU      0.02s WALL (       9 calls)
     sum_band:loo :    683.63s CPU     28.56s WALL (       9 calls)
     sum_band:buf :      2.37s CPU      0.09s WALL (     855 calls)
     sum_band:ini :     14.72s CPU      0.50s WALL (     855 calls)
     sum_band:cal :     74.26s CPU      3.09s WALL (     855 calls)
     sum_band:bec :     29.73s CPU      1.23s WALL (     855 calls)
     addusdens    :      4.21s CPU      0.80s WALL (       9 calls)
                                        0.00s GPU  (       9 calls)
     addusd:skk   :      0.25s CPU      0.00s WALL (      18 calls)
                                        0.00s GPU  (      18 calls)

     Called by *egterg:
     cdiaghg      :     77.01s CPU      2.47s WALL (    2943 calls)
     cegterg:over :    218.58s CPU      9.29s WALL (    2088 calls)
     cegterg:upda :     90.35s CPU      6.61s WALL (    2088 calls)
     cegterg:last :     78.88s CPU      9.40s WALL (    1630 calls)
     h_psi        :   2860.35s CPU    122.01s WALL (    3038 calls)
     s_psi        :    167.14s CPU      8.80s WALL (    3038 calls)
     g_psi        :     20.81s CPU      1.32s WALL (    2088 calls)

     Called by h_psi:
     h_psi:calbec :    198.41s CPU      8.03s WALL (    3038 calls)
     vloc_psi     :   2385.76s CPU    103.75s WALL (    3038 calls)
     add_vuspsi   :    244.13s CPU      8.62s WALL (    3038 calls)

     General routines
     calbec       :    309.91s CPU     12.76s WALL (    4368 calls)
     fft          :      4.85s CPU      0.19s WALL (     153 calls)
     ffts         :      0.47s CPU      0.01s WALL (      19 calls)
     fftw         :    931.10s CPU     42.22s WALL (  159635 calls)
     interpolate  :      0.92s CPU      0.02s WALL (      10 calls)

     Parallel routines

     PAW routines
     PAW_pot      :      3.74s CPU      0.18s WALL (      10 calls)
     PAW_symme    :      0.00s CPU      0.00s WALL (      19 calls)

     PWSCF        :      1h16m CPU   3m30.01s WALL


   This run was terminated on:   0: 9:56  12Jun2024            

=------------------------------------------------------------------------------=
   JOB DONE.
=------------------------------------------------------------------------------=
