
     Program PWSCF v.7.3.1 starts on 11Jun2024 at 23:40:30 

     This program is part of the open-source Quantum ESPRESSO suite
     for quantum simulation of materials; please cite
         "P. Giannozzi et al., J. Phys.:Condens. Matter 21 395502 (2009);
         "P. Giannozzi et al., J. Phys.:Condens. Matter 29 465901 (2017);
         "P. Giannozzi et al., J. Chem. Phys. 152 154105 (2020);
          URL http://www.quantum-espresso.org", 
     in publications or presentations arising from this work. More details at
     http://www.quantum-espresso.org/quote

     Parallel version (MPI & OpenMP), running on      24 processor cores
     Number of MPI processes:                 1
     Threads/MPI process:                    24

     MPI processes distributed on     1 nodes
     4766 MiB available memory on the printing compute node when the environment starts

     Waiting for input...
     Reading input from standard input

     Current dimensions of program PWSCF are:
     Max number of different atomic species (ntypx) = 10
     Max number of k-points (npk) =  40000
     Max angular momentum in pseudopotentials (lmaxx) =  4
     file O.pbe-n-kjpaw_psl.0.1.UPF: wavefunction(s)  2P renormalized
     Message from routine setup:
     using ibrav=0 with symmetry is DISCOURAGED, use correct ibrav instead

     Subspace diagonalization in iterative solution of the eigenvalue problem:
     a serial algorithm will be used


     G-vector sticks info
     --------------------
     sticks:   dense  smooth     PW     G-vecs:    dense   smooth      PW
     Sum        1201     595    187                54271    19241    3177

     Using Slab Decomposition



     bravais-lattice index     =            0
     lattice parameter (alat)  =       6.6071  a.u.
     unit-cell volume          =     402.9211 (a.u.)^3
     number of atoms/cell      =            4
     number of atomic types    =            2
     number of electrons       =        52.00
     number of Kohn-Sham states=           31
     kinetic-energy cutoff     =      50.0000  Ry
     charge density cutoff     =     400.0000  Ry
     scf convergence threshold =      2.0E-08
     mixing beta               =       0.4000
     number of iterations used =            8  plain     mixing
     Exchange-correlation= SLA  PW   PBE  PBE
                           (   1   4   3   4   0   0   0)

     celldm(1)=   6.607123  celldm(2)=   0.000000  celldm(3)=   0.000000
     celldm(4)=   0.000000  celldm(5)=   0.000000  celldm(6)=   0.000000

     crystal axes: (cart. coord. in units of alat)
               a(1) = (   1.000000   0.000000   0.000000 )  
               a(2) = (  -0.500000   0.866025   0.000000 )  
               a(3) = (   0.000000   0.000000   1.613066 )  

     reciprocal axes: (cart. coord. in units 2 pi/alat)
               b(1) = (  1.000000  0.577350 -0.000000 )  
               b(2) = (  0.000000  1.154701  0.000000 )  
               b(3) = (  0.000000 -0.000000  0.619937 )  


     PseudoPot. # 1 for O  read from file:
     ../SSSP_1.3.0_PBE_efficiency/O.pbe-n-kjpaw_psl.0.1.UPF
     MD5 check sum: 0234752ac141de4415c5fc33072bef88
     Pseudo is Projector augmented-wave + core cor, Zval =  6.0
     Generated using "atomic" code by A. Dal Corso  v.5.0.99 svn rev. 10869
     Shape of augmentation charge: BESSEL
     Using radial grid of 1095 points,  4 beta functions with: 
                l(1) =   0
                l(2) =   0
                l(3) =   1
                l(4) =   1
     Q(r) pseudized with 0 coefficients 


     PseudoPot. # 2 for Zn read from file:
     ../SSSP_1.3.0_PBE_efficiency/Zn_pbe_v1.uspp.F.UPF
     MD5 check sum: df62231357ef9e81f77b2b3087fa5675
     Pseudo is Ultrasoft, Zval = 20.0
     Generated by new atomic code, or converted to UPF format
     Using radial grid of  943 points,  6 beta functions with: 
                l(1) =   0
                l(2) =   0
                l(3) =   1
                l(4) =   1
                l(5) =   2
                l(6) =   2
     Q(r) pseudized with  8 coefficients,  rinner =    1.100   1.100   1.100
                                                       1.100   1.100

     atomic species   valence    mass     pseudopotential
     O                 6.00    15.99940     O ( 1.00)
     Zn               20.00    65.38000     Zn( 1.00)

     12 Sym. Ops. (no inversion) found ( 6 have fractional translation)


                                    s                        frac. trans.

      isym =  1     identity                                     

 cryst.   s( 1) = (     1          0          0      )
                  (     0          1          0      )
                  (     0          0          1      )

 cart.    s( 1) = (  1.0000000  0.0000000  0.0000000 )
                  (  0.0000000  1.0000000  0.0000000 )
                  (  0.0000000  0.0000000  1.0000000 )


      isym =  2     180 deg rotation - cart. axis [0,0,1]        

 cryst.   s( 2) = (    -1          0          0      )    f =(  0.0000000 )
                  (     0         -1          0      )       (  0.0000000 )
                  (     0          0          1      )       (  0.5000000 )

 cart.    s( 2) = ( -1.0000000  0.0000000  0.0000000 )    f =(  0.0000000 )
                  (  0.0000000 -1.0000000  0.0000000 )       (  0.0000000 )
                  (  0.0000000  0.0000000  1.0000000 )       (  0.8065331 )


      isym =  3      60 deg rotation - cryst. axis [0,0,1]       

 cryst.   s( 3) = (     1          1          0      )    f =( -0.0000000 )
                  (    -1          0          0      )       (  0.0000000 )
                  (     0          0          1      )       (  0.5000000 )

 cart.    s( 3) = (  0.5000000 -0.8660254  0.0000000 )    f =( -0.0000000 )
                  (  0.8660254  0.5000000  0.0000000 )       (  0.0000000 )
                  (  0.0000000  0.0000000  1.0000000 )       (  0.8065331 )


      isym =  4      60 deg rotation - cryst. axis [0,0,-1]      

 cryst.   s( 4) = (     0         -1          0      )    f =(  0.0000000 )
                  (     1          1          0      )       (  0.0000000 )
                  (     0          0          1      )       (  0.5000000 )

 cart.    s( 4) = (  0.5000000  0.8660254  0.0000000 )    f =( -0.0000000 )
                  ( -0.8660254  0.5000000  0.0000000 )       (  0.0000000 )
                  (  0.0000000  0.0000000  1.0000000 )       (  0.8065331 )


      isym =  5     120 deg rotation - cryst. axis [0,0,1]       

 cryst.   s( 5) = (     0          1          0      )
                  (    -1         -1          0      )
                  (     0          0          1      )

 cart.    s( 5) = ( -0.5000000 -0.8660254  0.0000000 )
                  (  0.8660254 -0.5000000  0.0000000 )
                  (  0.0000000  0.0000000  1.0000000 )


      isym =  6     120 deg rotation - cryst. axis [0,0,-1]      

 cryst.   s( 6) = (    -1         -1          0      )
                  (     1          0          0      )
                  (     0          0          1      )

 cart.    s( 6) = ( -0.5000000  0.8660254  0.0000000 )
                  ( -0.8660254 -0.5000000  0.0000000 )
                  (  0.0000000  0.0000000  1.0000000 )


      isym =  7     inv. 180 deg rotation - cart. axis [0,1,0]   

 cryst.   s( 7) = (     1          0          0      )    f =( -0.0000000 )
                  (    -1         -1          0      )       (  0.0000000 )
                  (     0          0          1      )       (  0.5000000 )

 cart.    s( 7) = (  1.0000000  0.0000000  0.0000000 )    f =( -0.0000000 )
                  (  0.0000000 -1.0000000  0.0000000 )       (  0.0000000 )
                  (  0.0000000  0.0000000  1.0000000 )       (  0.8065331 )


      isym =  8     inv. 180 deg rotation - cart. axis [1,0,0]   

 cryst.   s( 8) = (    -1          0          0      )
                  (     1          1          0      )
                  (     0          0          1      )

 cart.    s( 8) = ( -1.0000000  0.0000000  0.0000000 )
                  (  0.0000000  1.0000000  0.0000000 )
                  (  0.0000000  0.0000000  1.0000000 )


      isym =  9     inv. 180 deg rotation - cryst. axis [1,-1,0] 

 cryst.   s( 9) = (     0          1          0      )    f =(  0.0000000 )
                  (     1          0          0      )       (  0.0000000 )
                  (     0          0          1      )       (  0.5000000 )

 cart.    s( 9) = ( -0.5000000  0.8660254  0.0000000 )    f =(  0.0000000 )
                  (  0.8660254  0.5000000  0.0000000 )       (  0.0000000 )
                  (  0.0000000  0.0000000  1.0000000 )       (  0.8065331 )


      isym = 10     inv. 180 deg rotation - cryst. axis [2,1,0]  

 cryst.   s(10) = (    -1         -1          0      )    f =(  0.0000000 )
                  (     0          1          0      )       (  0.0000000 )
                  (     0          0          1      )       (  0.5000000 )

 cart.    s(10) = ( -0.5000000 -0.8660254  0.0000000 )    f =( -0.0000000 )
                  ( -0.8660254  0.5000000  0.0000000 )       (  0.0000000 )
                  (  0.0000000  0.0000000  1.0000000 )       (  0.8065331 )


      isym = 11     inv. 180 deg rotation - cryst. axis [0,1,0]  

 cryst.   s(11) = (     1          1          0      )
                  (     0         -1          0      )
                  (     0          0          1      )

 cart.    s(11) = (  0.5000000  0.8660254  0.0000000 )
                  (  0.8660254 -0.5000000  0.0000000 )
                  (  0.0000000  0.0000000  1.0000000 )


      isym = 12     inv. 180 deg rotation - cryst. axis [1,1,0]  

 cryst.   s(12) = (     0         -1          0      )
                  (    -1          0          0      )
                  (     0          0          1      )

 cart.    s(12) = (  0.5000000 -0.8660254  0.0000000 )
                  ( -0.8660254 -0.5000000  0.0000000 )
                  (  0.0000000  0.0000000  1.0000000 )


   Cartesian axes

     site n.     atom                  positions (alat units)
         1        Zn     tau(   1) = (   0.5000000   0.2886751   0.8074875  )
         2        Zn     tau(   2) = (  -0.0000000   0.5773503   0.0009545  )
         3        O      tau(   3) = (   0.5000000   0.2886751   1.4190438  )
         4        O      tau(   4) = (  -0.0000000   0.5773503   0.6125107  )

   Crystallographic axes

     site n.     atom                  positions (cryst. coord.)
         1        Zn     tau(   1) = (  0.6666667  0.3333333  0.5005917  )
         2        Zn     tau(   2) = (  0.3333333  0.6666667  0.0005917  )
         3        O      tau(   3) = (  0.6666667  0.3333333  0.8797183  )
         4        O      tau(   4) = (  0.3333333  0.6666667  0.3797183  )

     number of k points=    95  Marzari-Vanderbilt smearing, width (Ry)=  0.0147
                       cart. coord. in units 2pi/alat
        k(    1) = (   0.0000000   0.0000000   0.0000000), wk =   0.0017361
        k(    2) = (   0.0000000   0.0000000   0.0774922), wk =   0.0034722
        k(    3) = (   0.0000000   0.0000000   0.1549843), wk =   0.0034722
        k(    4) = (   0.0000000   0.0000000   0.2324765), wk =   0.0034722
        k(    5) = (   0.0000000   0.0000000  -0.3099687), wk =   0.0017361
        k(    6) = (   0.0000000   0.0962250   0.0000000), wk =   0.0104167
        k(    7) = (   0.0000000   0.0962250   0.0774922), wk =   0.0208333
        k(    8) = (   0.0000000   0.0962250   0.1549843), wk =   0.0208333
        k(    9) = (   0.0000000   0.0962250   0.2324765), wk =   0.0208333
        k(   10) = (   0.0000000   0.0962250  -0.3099687), wk =   0.0104167
        k(   11) = (   0.0000000   0.1924501   0.0000000), wk =   0.0104167
        k(   12) = (   0.0000000   0.1924501   0.0774922), wk =   0.0208333
        k(   13) = (   0.0000000   0.1924501   0.1549843), wk =   0.0208333
        k(   14) = (   0.0000000   0.1924501   0.2324765), wk =   0.0208333
        k(   15) = (   0.0000000   0.1924501  -0.3099687), wk =   0.0104167
        k(   16) = (   0.0000000   0.2886751   0.0000000), wk =   0.0104167
        k(   17) = (   0.0000000   0.2886751   0.0774922), wk =   0.0208333
        k(   18) = (   0.0000000   0.2886751   0.1549843), wk =   0.0208333
        k(   19) = (   0.0000000   0.2886751   0.2324765), wk =   0.0208333
        k(   20) = (   0.0000000   0.2886751  -0.3099687), wk =   0.0104167
        k(   21) = (   0.0000000   0.3849002   0.0000000), wk =   0.0104167
        k(   22) = (   0.0000000   0.3849002   0.0774922), wk =   0.0208333
        k(   23) = (   0.0000000   0.3849002   0.1549843), wk =   0.0208333
        k(   24) = (   0.0000000   0.3849002   0.2324765), wk =   0.0208333
        k(   25) = (   0.0000000   0.3849002  -0.3099687), wk =   0.0104167
        k(   26) = (   0.0000000   0.4811252   0.0000000), wk =   0.0104167
        k(   27) = (   0.0000000   0.4811252   0.0774922), wk =   0.0208333
        k(   28) = (   0.0000000   0.4811252   0.1549843), wk =   0.0208333
        k(   29) = (   0.0000000   0.4811252   0.2324765), wk =   0.0208333
        k(   30) = (   0.0000000   0.4811252  -0.3099687), wk =   0.0104167
        k(   31) = (   0.0000000  -0.5773503   0.0000000), wk =   0.0052083
        k(   32) = (   0.0000000  -0.5773503   0.0774922), wk =   0.0104167
        k(   33) = (   0.0000000  -0.5773503   0.1549843), wk =   0.0104167
        k(   34) = (   0.0000000  -0.5773503   0.2324765), wk =   0.0104167
        k(   35) = (   0.0000000  -0.5773503  -0.3099687), wk =   0.0052083
        k(   36) = (   0.0833333   0.1443376   0.0000000), wk =   0.0104167
        k(   37) = (   0.0833333   0.1443376   0.0774922), wk =   0.0208333
        k(   38) = (   0.0833333   0.1443376   0.1549843), wk =   0.0208333
        k(   39) = (   0.0833333   0.1443376   0.2324765), wk =   0.0208333
        k(   40) = (   0.0833333   0.1443376  -0.3099687), wk =   0.0104167
        k(   41) = (   0.0833333   0.2405626   0.0000000), wk =   0.0208333
        k(   42) = (   0.0833333   0.2405626   0.0774922), wk =   0.0416667
        k(   43) = (   0.0833333   0.2405626   0.1549843), wk =   0.0416667
        k(   44) = (   0.0833333   0.2405626   0.2324765), wk =   0.0416667
        k(   45) = (   0.0833333   0.2405626  -0.3099687), wk =   0.0208333
        k(   46) = (   0.0833333   0.3367877   0.0000000), wk =   0.0208333
        k(   47) = (   0.0833333   0.3367877   0.0774922), wk =   0.0416667
        k(   48) = (   0.0833333   0.3367877   0.1549843), wk =   0.0416667
        k(   49) = (   0.0833333   0.3367877   0.2324765), wk =   0.0416667
        k(   50) = (   0.0833333   0.3367877  -0.3099687), wk =   0.0208333
        k(   51) = (   0.0833333   0.4330127   0.0000000), wk =   0.0208333
        k(   52) = (   0.0833333   0.4330127   0.0774922), wk =   0.0416667
        k(   53) = (   0.0833333   0.4330127   0.1549843), wk =   0.0416667
        k(   54) = (   0.0833333   0.4330127   0.2324765), wk =   0.0416667
        k(   55) = (   0.0833333   0.4330127  -0.3099687), wk =   0.0208333
        k(   56) = (   0.0833333   0.5292377   0.0000000), wk =   0.0208333
        k(   57) = (   0.0833333   0.5292377   0.0774922), wk =   0.0416667
        k(   58) = (   0.0833333   0.5292377   0.1549843), wk =   0.0416667
        k(   59) = (   0.0833333   0.5292377   0.2324765), wk =   0.0416667
        k(   60) = (   0.0833333   0.5292377  -0.3099687), wk =   0.0208333
        k(   61) = (   0.1666667   0.2886751   0.0000000), wk =   0.0104167
        k(   62) = (   0.1666667   0.2886751   0.0774922), wk =   0.0208333
        k(   63) = (   0.1666667   0.2886751   0.1549843), wk =   0.0208333
        k(   64) = (   0.1666667   0.2886751   0.2324765), wk =   0.0208333
        k(   65) = (   0.1666667   0.2886751  -0.3099687), wk =   0.0104167
        k(   66) = (   0.1666667   0.3849002   0.0000000), wk =   0.0208333
        k(   67) = (   0.1666667   0.3849002   0.0774922), wk =   0.0416667
        k(   68) = (   0.1666667   0.3849002   0.1549843), wk =   0.0416667
        k(   69) = (   0.1666667   0.3849002   0.2324765), wk =   0.0416667
        k(   70) = (   0.1666667   0.3849002  -0.3099687), wk =   0.0208333
        k(   71) = (   0.1666667   0.4811252   0.0000000), wk =   0.0208333
        k(   72) = (   0.1666667   0.4811252   0.0774922), wk =   0.0416667
        k(   73) = (   0.1666667   0.4811252   0.1549843), wk =   0.0416667
        k(   74) = (   0.1666667   0.4811252   0.2324765), wk =   0.0416667
        k(   75) = (   0.1666667   0.4811252  -0.3099687), wk =   0.0208333
        k(   76) = (   0.1666667   0.5773503   0.0000000), wk =   0.0104167
        k(   77) = (   0.1666667   0.5773503   0.0774922), wk =   0.0208333
        k(   78) = (   0.1666667   0.5773503   0.1549843), wk =   0.0208333
        k(   79) = (   0.1666667   0.5773503   0.2324765), wk =   0.0208333
        k(   80) = (   0.1666667   0.5773503  -0.3099687), wk =   0.0104167
        k(   81) = (   0.2500000   0.4330127   0.0000000), wk =   0.0104167
        k(   82) = (   0.2500000   0.4330127   0.0774922), wk =   0.0208333
        k(   83) = (   0.2500000   0.4330127   0.1549843), wk =   0.0208333
        k(   84) = (   0.2500000   0.4330127   0.2324765), wk =   0.0208333
        k(   85) = (   0.2500000   0.4330127  -0.3099687), wk =   0.0104167
        k(   86) = (   0.2500000   0.5292377   0.0000000), wk =   0.0208333
        k(   87) = (   0.2500000   0.5292377   0.0774922), wk =   0.0416667
        k(   88) = (   0.2500000   0.5292377   0.1549843), wk =   0.0416667
        k(   89) = (   0.2500000   0.5292377   0.2324765), wk =   0.0416667
        k(   90) = (   0.2500000   0.5292377  -0.3099687), wk =   0.0208333
        k(   91) = (   0.3333333   0.5773503   0.0000000), wk =   0.0034722
        k(   92) = (   0.3333333   0.5773503   0.0774922), wk =   0.0069444
        k(   93) = (   0.3333333   0.5773503   0.1549843), wk =   0.0069444
        k(   94) = (   0.3333333   0.5773503   0.2324765), wk =   0.0069444
        k(   95) = (   0.3333333   0.5773503  -0.3099687), wk =   0.0034722

                       cryst. coord.
        k(    1) = (   0.0000000   0.0000000   0.0000000), wk =   0.0017361
        k(    2) = (   0.0000000   0.0000000   0.1250000), wk =   0.0034722
        k(    3) = (   0.0000000   0.0000000   0.2500000), wk =   0.0034722
        k(    4) = (   0.0000000   0.0000000   0.3750000), wk =   0.0034722
        k(    5) = (   0.0000000   0.0000000  -0.5000000), wk =   0.0017361
        k(    6) = (   0.0000000   0.0833333   0.0000000), wk =   0.0104167
        k(    7) = (   0.0000000   0.0833333   0.1250000), wk =   0.0208333
        k(    8) = (   0.0000000   0.0833333   0.2500000), wk =   0.0208333
        k(    9) = (   0.0000000   0.0833333   0.3750000), wk =   0.0208333
        k(   10) = (   0.0000000   0.0833333  -0.5000000), wk =   0.0104167
        k(   11) = (   0.0000000   0.1666667   0.0000000), wk =   0.0104167
        k(   12) = (   0.0000000   0.1666667   0.1250000), wk =   0.0208333
        k(   13) = (   0.0000000   0.1666667   0.2500000), wk =   0.0208333
        k(   14) = (   0.0000000   0.1666667   0.3750000), wk =   0.0208333
        k(   15) = (   0.0000000   0.1666667  -0.5000000), wk =   0.0104167
        k(   16) = (   0.0000000   0.2500000   0.0000000), wk =   0.0104167
        k(   17) = (   0.0000000   0.2500000   0.1250000), wk =   0.0208333
        k(   18) = (   0.0000000   0.2500000   0.2500000), wk =   0.0208333
        k(   19) = (   0.0000000   0.2500000   0.3750000), wk =   0.0208333
        k(   20) = (   0.0000000   0.2500000  -0.5000000), wk =   0.0104167
        k(   21) = (   0.0000000   0.3333333   0.0000000), wk =   0.0104167
        k(   22) = (   0.0000000   0.3333333   0.1250000), wk =   0.0208333
        k(   23) = (   0.0000000   0.3333333   0.2500000), wk =   0.0208333
        k(   24) = (   0.0000000   0.3333333   0.3750000), wk =   0.0208333
        k(   25) = (   0.0000000   0.3333333  -0.5000000), wk =   0.0104167
        k(   26) = (   0.0000000   0.4166667   0.0000000), wk =   0.0104167
        k(   27) = (   0.0000000   0.4166667   0.1250000), wk =   0.0208333
        k(   28) = (   0.0000000   0.4166667   0.2500000), wk =   0.0208333
        k(   29) = (   0.0000000   0.4166667   0.3750000), wk =   0.0208333
        k(   30) = (   0.0000000   0.4166667  -0.5000000), wk =   0.0104167
        k(   31) = (   0.0000000  -0.5000000   0.0000000), wk =   0.0052083
        k(   32) = (   0.0000000  -0.5000000   0.1250000), wk =   0.0104167
        k(   33) = (   0.0000000  -0.5000000   0.2500000), wk =   0.0104167
        k(   34) = (   0.0000000  -0.5000000   0.3750000), wk =   0.0104167
        k(   35) = (   0.0000000  -0.5000000  -0.5000000), wk =   0.0052083
        k(   36) = (   0.0833333   0.0833333   0.0000000), wk =   0.0104167
        k(   37) = (   0.0833333   0.0833333   0.1250000), wk =   0.0208333
        k(   38) = (   0.0833333   0.0833333   0.2500000), wk =   0.0208333
        k(   39) = (   0.0833333   0.0833333   0.3750000), wk =   0.0208333
        k(   40) = (   0.0833333   0.0833333  -0.5000000), wk =   0.0104167
        k(   41) = (   0.0833333   0.1666667   0.0000000), wk =   0.0208333
        k(   42) = (   0.0833333   0.1666667   0.1250000), wk =   0.0416667
        k(   43) = (   0.0833333   0.1666667   0.2500000), wk =   0.0416667
        k(   44) = (   0.0833333   0.1666667   0.3750000), wk =   0.0416667
        k(   45) = (   0.0833333   0.1666667  -0.5000000), wk =   0.0208333
        k(   46) = (   0.0833333   0.2500000   0.0000000), wk =   0.0208333
        k(   47) = (   0.0833333   0.2500000   0.1250000), wk =   0.0416667
        k(   48) = (   0.0833333   0.2500000   0.2500000), wk =   0.0416667
        k(   49) = (   0.0833333   0.2500000   0.3750000), wk =   0.0416667
        k(   50) = (   0.0833333   0.2500000  -0.5000000), wk =   0.0208333
        k(   51) = (   0.0833333   0.3333333   0.0000000), wk =   0.0208333
        k(   52) = (   0.0833333   0.3333333   0.1250000), wk =   0.0416667
        k(   53) = (   0.0833333   0.3333333   0.2500000), wk =   0.0416667
        k(   54) = (   0.0833333   0.3333333   0.3750000), wk =   0.0416667
        k(   55) = (   0.0833333   0.3333333  -0.5000000), wk =   0.0208333
        k(   56) = (   0.0833333   0.4166667   0.0000000), wk =   0.0208333
        k(   57) = (   0.0833333   0.4166667   0.1250000), wk =   0.0416667
        k(   58) = (   0.0833333   0.4166667   0.2500000), wk =   0.0416667
        k(   59) = (   0.0833333   0.4166667   0.3750000), wk =   0.0416667
        k(   60) = (   0.0833333   0.4166667  -0.5000000), wk =   0.0208333
        k(   61) = (   0.1666667   0.1666667   0.0000000), wk =   0.0104167
        k(   62) = (   0.1666667   0.1666667   0.1250000), wk =   0.0208333
        k(   63) = (   0.1666667   0.1666667   0.2500000), wk =   0.0208333
        k(   64) = (   0.1666667   0.1666667   0.3750000), wk =   0.0208333
        k(   65) = (   0.1666667   0.1666667  -0.5000000), wk =   0.0104167
        k(   66) = (   0.1666667   0.2500000   0.0000000), wk =   0.0208333
        k(   67) = (   0.1666667   0.2500000   0.1250000), wk =   0.0416667
        k(   68) = (   0.1666667   0.2500000   0.2500000), wk =   0.0416667
        k(   69) = (   0.1666667   0.2500000   0.3750000), wk =   0.0416667
        k(   70) = (   0.1666667   0.2500000  -0.5000000), wk =   0.0208333
        k(   71) = (   0.1666667   0.3333333   0.0000000), wk =   0.0208333
        k(   72) = (   0.1666667   0.3333333   0.1250000), wk =   0.0416667
        k(   73) = (   0.1666667   0.3333333   0.2500000), wk =   0.0416667
        k(   74) = (   0.1666667   0.3333333   0.3750000), wk =   0.0416667
        k(   75) = (   0.1666667   0.3333333  -0.5000000), wk =   0.0208333
        k(   76) = (   0.1666667   0.4166667   0.0000000), wk =   0.0104167
        k(   77) = (   0.1666667   0.4166667   0.1250000), wk =   0.0208333
        k(   78) = (   0.1666667   0.4166667   0.2500000), wk =   0.0208333
        k(   79) = (   0.1666667   0.4166667   0.3750000), wk =   0.0208333
        k(   80) = (   0.1666667   0.4166667  -0.5000000), wk =   0.0104167
        k(   81) = (   0.2500000   0.2500000   0.0000000), wk =   0.0104167
        k(   82) = (   0.2500000   0.2500000   0.1250000), wk =   0.0208333
        k(   83) = (   0.2500000   0.2500000   0.2500000), wk =   0.0208333
        k(   84) = (   0.2500000   0.2500000   0.3750000), wk =   0.0208333
        k(   85) = (   0.2500000   0.2500000  -0.5000000), wk =   0.0104167
        k(   86) = (   0.2500000   0.3333333   0.0000000), wk =   0.0208333
        k(   87) = (   0.2500000   0.3333333   0.1250000), wk =   0.0416667
        k(   88) = (   0.2500000   0.3333333   0.2500000), wk =   0.0416667
        k(   89) = (   0.2500000   0.3333333   0.3750000), wk =   0.0416667
        k(   90) = (   0.2500000   0.3333333  -0.5000000), wk =   0.0208333
        k(   91) = (   0.3333333   0.3333333   0.0000000), wk =   0.0034722
        k(   92) = (   0.3333333   0.3333333   0.1250000), wk =   0.0069444
        k(   93) = (   0.3333333   0.3333333   0.2500000), wk =   0.0069444
        k(   94) = (   0.3333333   0.3333333   0.3750000), wk =   0.0069444
        k(   95) = (   0.3333333   0.3333333  -0.5000000), wk =   0.0034722

     Dense  grid:    54271 G-vectors     FFT dimensions: (  45,  45,  72)

     Smooth grid:    19241 G-vectors     FFT dimensions: (  30,  30,  48)

     Dynamical RAM for                 wfc:       1.14 MB

     Dynamical RAM for     wfc (w. buffer):     109.26 MB

     Dynamical RAM for           str. fact:       1.66 MB

     Dynamical RAM for           local pot:       0.00 MB

     Dynamical RAM for          nlocal pot:       1.91 MB

     Dynamical RAM for                qrad:       3.21 MB

     Dynamical RAM for          rho,v,vnew:       5.82 MB

     Dynamical RAM for               rhoin:       1.94 MB

     Dynamical RAM for            rho*nmix:      13.25 MB

     Dynamical RAM for           G-vectors:       3.25 MB

     Dynamical RAM for          h,s,v(r/c):       0.18 MB

     Dynamical RAM for          <psi|beta>:       0.02 MB

     Dynamical RAM for                 psi:       2.28 MB

     Dynamical RAM for                hpsi:       2.28 MB

     Dynamical RAM for                spsi:       2.28 MB

     Dynamical RAM for      wfcinit/wfcrot:       2.52 MB

     Dynamical RAM for           addusdens:     155.68 MB

     Dynamical RAM for          addusforce:     157.76 MB

     Dynamical RAM for         addusstress:     166.45 MB

     Estimated static dynamical RAM per process >     135.09 MB

     Estimated max dynamical RAM per process >     314.79 MB

     Check: negative core charge=   -0.000002

     Initial potential from superposition of free atoms

     starting charge      51.9997, renormalised to      52.0000
     Starting wfcs are   34 randomized atomic wfcs
     Checking if some PAW data can be deallocated... 

     total cpu time spent up to now is        9.5 secs

     Self-consistent Calculation

     iteration #  1     ecut=    50.00 Ry     beta= 0.40
     Davidson diagonalization with overlap

---- Real-time Memory Report at c_bands before calling an iterative solver
           215 MiB given to the printing process from OS
             0 MiB allocation reported by mallinfo(arena+hblkhd)
          4624 MiB available memory on the node where the printing process lives
------------------
     ethr =  1.00E-02,  avg # of iterations =  2.9

     total cpu time spent up to now is       32.6 secs

     total energy              =   -1006.22146898 Ry
     estimated scf accuracy    <       0.98045811 Ry

     iteration #  2     ecut=    50.00 Ry     beta= 0.40
     Davidson diagonalization with overlap

---- Real-time Memory Report at c_bands before calling an iterative solver
           363 MiB given to the printing process from OS
             0 MiB allocation reported by mallinfo(arena+hblkhd)
          4569 MiB available memory on the node where the printing process lives
------------------
     ethr =  1.89E-03,  avg # of iterations =  2.0

     total cpu time spent up to now is       56.0 secs

     WARNING: integrated charge=    52.00090278, expected=    52.00000000

     total energy              =   -1006.49300978 Ry
     estimated scf accuracy    <       0.22017935 Ry

     iteration #  3     ecut=    50.00 Ry     beta= 0.40
     Davidson diagonalization with overlap

---- Real-time Memory Report at c_bands before calling an iterative solver
           364 MiB given to the printing process from OS
             0 MiB allocation reported by mallinfo(arena+hblkhd)
          4567 MiB available memory on the node where the printing process lives
------------------
     ethr =  4.23E-04,  avg # of iterations =  2.0

     total cpu time spent up to now is       76.4 secs

     WARNING: integrated charge=    52.00133804, expected=    52.00000000

     total energy              =   -1006.52546837 Ry
     estimated scf accuracy    <       0.01203892 Ry

     iteration #  4     ecut=    50.00 Ry     beta= 0.40
     Davidson diagonalization with overlap

---- Real-time Memory Report at c_bands before calling an iterative solver
           365 MiB given to the printing process from OS
             0 MiB allocation reported by mallinfo(arena+hblkhd)
          4565 MiB available memory on the node where the printing process lives
------------------
     ethr =  2.32E-05,  avg # of iterations =  3.4

     total cpu time spent up to now is       98.9 secs

     WARNING: integrated charge=    52.00139649, expected=    52.00000000

     total energy              =   -1006.52628342 Ry
     estimated scf accuracy    <       0.00129275 Ry

     iteration #  5     ecut=    50.00 Ry     beta= 0.40
     Davidson diagonalization with overlap

---- Real-time Memory Report at c_bands before calling an iterative solver
           367 MiB given to the printing process from OS
             0 MiB allocation reported by mallinfo(arena+hblkhd)
          4564 MiB available memory on the node where the printing process lives
------------------
     ethr =  2.49E-06,  avg # of iterations =  3.7

     total cpu time spent up to now is      124.3 secs

     WARNING: integrated charge=    52.00144164, expected=    52.00000000

     total energy              =   -1006.52627823 Ry
     estimated scf accuracy    <       0.00006499 Ry

     iteration #  6     ecut=    50.00 Ry     beta= 0.40
     Davidson diagonalization with overlap

---- Real-time Memory Report at c_bands before calling an iterative solver
           368 MiB given to the printing process from OS
             0 MiB allocation reported by mallinfo(arena+hblkhd)
          4563 MiB available memory on the node where the printing process lives
------------------
     ethr =  1.25E-07,  avg # of iterations =  3.0

     total cpu time spent up to now is      150.1 secs

     WARNING: integrated charge=    52.00151703, expected=    52.00000000

     total energy              =   -1006.52626178 Ry
     estimated scf accuracy    <       0.00005503 Ry

     iteration #  7     ecut=    50.00 Ry     beta= 0.40
     Davidson diagonalization with overlap

---- Real-time Memory Report at c_bands before calling an iterative solver
           368 MiB given to the printing process from OS
             0 MiB allocation reported by mallinfo(arena+hblkhd)
          4562 MiB available memory on the node where the printing process lives
------------------
     ethr =  1.06E-07,  avg # of iterations =  2.0

     total cpu time spent up to now is      170.3 secs

     WARNING: integrated charge=    52.00149065, expected=    52.00000000

     total energy              =   -1006.52630499 Ry
     estimated scf accuracy    <       0.00000024 Ry

     iteration #  8     ecut=    50.00 Ry     beta= 0.40
     Davidson diagonalization with overlap

---- Real-time Memory Report at c_bands before calling an iterative solver
           369 MiB given to the printing process from OS
             0 MiB allocation reported by mallinfo(arena+hblkhd)
          4562 MiB available memory on the node where the printing process lives
------------------
     ethr =  4.69E-10,  avg # of iterations =  3.2

     total cpu time spent up to now is      195.8 secs

     WARNING: integrated charge=    52.00147879, expected=    52.00000000

     total energy              =   -1006.52630369 Ry
     estimated scf accuracy    <       0.00000012 Ry

     iteration #  9     ecut=    50.00 Ry     beta= 0.40
     Davidson diagonalization with overlap

---- Real-time Memory Report at c_bands before calling an iterative solver
           369 MiB given to the printing process from OS
             0 MiB allocation reported by mallinfo(arena+hblkhd)
          4560 MiB available memory on the node where the printing process lives
------------------
     ethr =  2.36E-10,  avg # of iterations =  2.0

     total cpu time spent up to now is      217.9 secs

     End of self-consistent calculation

          k = 0.0000 0.0000 0.0000 (  2381 PWs)   bands (ev):

  -117.8292-117.8292 -72.0206 -72.0198 -72.0169 -72.0169 -72.0169 -72.0169
   -11.0384 -10.6051   0.5548   0.5548   0.5741   0.6767   0.6767   1.1641
     1.1641   1.1785   1.2853   1.2853   1.7288   4.9631   4.9631   5.4919
     5.5221   5.5221   5.9610   9.8793  12.9523  17.2488  17.2488

     occupation numbers 
     1.0000   1.0000   1.0000   1.0000   1.0000   1.0000   1.0000   1.0000
     1.0000   1.0000   1.0000   1.0000   1.0000   1.0000   1.0000   1.0000
     1.0000   1.0000   1.0000   1.0000   1.0000   1.0000   1.0000   1.0048
     1.0083   1.0083   0.6737   0.0000   0.0000   0.0000   0.0000

          k = 0.0000 0.0000 0.0775 (  2406 PWs)   bands (ev):

  -117.8293-117.8292 -72.0206 -72.0199 -72.0170 -72.0170 -72.0169 -72.0169
   -11.0225 -10.6221   0.5573   0.5573   0.5655   0.6697   0.6697   1.0178
     1.1703   1.1703   1.2825   1.2825   1.9660   4.9849   4.9849   5.0718
     5.5013   5.5013   6.4182   9.7715  13.0565  17.2545  17.6112

     occupation numbers 
     1.0000   1.0000   1.0000   1.0000   1.0000   1.0000   1.0000   1.0000
     1.0000   1.0000   1.0000   1.0000   1.0000   1.0000   1.0000   1.0000
     1.0000   1.0000   1.0000   1.0000   1.0000   1.0000   1.0000   1.0000
     1.0057   1.0057   0.0005   0.0000   0.0000   0.0000   0.0000

          k = 0.0000 0.0000 0.1550 (  2436 PWs)   bands (ev):

  -117.8293-117.8292 -72.0207 -72.0202 -72.0171 -72.0171 -72.0170 -72.0170
   -10.9768 -10.6704   0.5469   0.5654   0.5654   0.6511   0.6511   0.7981
     1.1875   1.1875   1.2736   1.2736   2.4075   4.5145   5.0467   5.0467
     5.4420   5.4420   7.0750   9.4629  13.3703  16.6160  17.2830

     occupation numbers 
     1.0000   1.0000   1.0000   1.0000   1.0000   1.0000   1.0000   1.0000
     1.0000   1.0000   1.0000   1.0000   1.0000   1.0000   1.0000   1.0000
     1.0000   1.0000   1.0000   1.0000   1.0000   1.0000   1.0000   1.0000
     1.0017   1.0017   0.0000   0.0000   0.0000   0.0000   0.0000

          k = 0.0000 0.0000 0.2325 (  2430 PWs)   bands (ev):

  -117.8293-117.8292 -72.0205 -72.0204 -72.0170 -72.0170 -72.0170 -72.0170
   -10.9078 -10.7419   0.5373   0.5800   0.5800   0.6262   0.6262   0.6434
     1.2112   1.2112   1.2581   1.2581   2.9084   3.9683   5.1387   5.1387
     5.3526   5.3526   7.7516   8.9915  13.8966  15.5619  17.3574

     occupation numbers 
     1.0000   1.0000   1.0000   1.0000   1.0000   1.0000   1.0000   1.0000
     1.0000   1.0000   1.0000   1.0000   1.0000   1.0000   1.0000   1.0000
     1.0000   1.0000   1.0000   1.0000   1.0000   1.0000   1.0000   1.0000
     1.0002   1.0002   0.0000   0.0000   0.0000   0.0000   0.0000

          k = 0.0000 0.0000-0.3100 (  2424 PWs)   bands (ev):

  -117.8292-117.8292 -72.0204 -72.0204 -72.0170 -72.0170 -72.0170 -72.0170
   -10.8254 -10.8254   0.5615   0.5615   0.6010   0.6010   0.6010   0.6010
     1.2364   1.2364   1.2364   1.2364   3.4330   3.4330   5.2462   5.2462
     5.2462   5.2462   8.4050   8.4050  14.6337  14.6337  17.4935

     occupation numbers 
     1.0000   1.0000   1.0000   1.0000   1.0000   1.0000   1.0000   1.0000
     1.0000   1.0000   1.0000   1.0000   1.0000   1.0000   1.0000   1.0000
     1.0000   1.0000   1.0000   1.0000   1.0000   1.0000   1.0000   1.0000
     1.0000   1.0000   0.0000   0.0000   0.0000   0.0000   0.0000

          k = 0.0000 0.0962 0.0000 (  2399 PWs)   bands (ev):

  -117.8292-117.8292 -72.0206 -72.0199 -72.0171 -72.0170 -72.0170 -72.0169
   -11.0148 -10.5945   0.5397   0.5693   0.5920   0.6812   0.6972   1.1414
     1.1563   1.1629   1.2871   1.3417   1.7692   4.7426   4.8952   4.9999
     5.4596   5.4868   6.5600  10.1214  12.9733  16.6082  17.2822

     occupation numbers 
     1.0000   1.0000   1.0000   1.0000   1.0000   1.0000   1.0000   1.0000
     1.0000   1.0000   1.0000   1.0000   1.0000   1.0000   1.0000   1.0000
     1.0000   1.0000   1.0000   1.0000   1.0000   1.0000   1.0000   1.0000
     1.0025   1.0043   0.0000   0.0000   0.0000   0.0000   0.0000

          k = 0.0000 0.0962 0.0775 (  2411 PWs)   bands (ev):

  -117.8293-117.8292 -72.0206 -72.0200 -72.0171 -72.0170 -72.0170 -72.0169
   -10.9993 -10.6110   0.5360   0.5721   0.5895   0.6732   0.6901   1.0151
     1.1630   1.1691   1.2841   1.3051   2.0036   4.7378   4.8364   4.9182
     5.4264   5.4648   6.8027  10.0062  13.0764  16.6116  17.2886

     occupation numbers 
     1.0000   1.0000   1.0000   1.0000   1.0000   1.0000   1.0000   1.0000
     1.0000   1.0000   1.0000   1.0000   1.0000   1.0000   1.0000   1.0000
     1.0000   1.0000   1.0000   1.0000   1.0000   1.0000   1.0000   1.0000
     1.0012   1.0028   0.0000   0.0000   0.0000   0.0000   0.0000

          k = 0.0000 0.0962 0.1550 (  2429 PWs)   bands (ev):

  -117.8293-117.8292 -72.0207 -72.0202 -72.0171 -72.0170 -72.0170 -72.0170
   -10.9548 -10.6577   0.5248   0.5810   0.5897   0.6496   0.6709   0.8107
     1.1824   1.1863   1.2745   1.2828   2.4372   4.3798   4.8560   4.9837
     5.3451   5.4020   7.3347   9.6808  13.3847  16.4011  16.9270

     occupation numbers 
     1.0000   1.0000   1.0000   1.0000   1.0000   1.0000   1.0000   1.0000
     1.0000   1.0000   1.0000   1.0000   1.0000   1.0000   1.0000   1.0000
     1.0000   1.0000   1.0000   1.0000   1.0000   1.0000   1.0000   1.0000
     1.0002   1.0007   0.0000   0.0000   0.0000   0.0000   0.0000

          k = 0.0000 0.0962 0.2325 (  2417 PWs)   bands (ev):

  -117.8292-117.8292 -72.0205 -72.0202 -72.0170 -72.0170 -72.0170 -72.0170
   -10.8877 -10.7269   0.5186   0.5928   0.5967   0.6109   0.6451   0.6780
     1.2090   1.2102   1.2581   1.2623   2.9227   3.9105   4.9640   5.0809
     5.2294   5.3073   7.9628   9.1938  13.8979  15.4996  16.9255

     occupation numbers 
     1.0000   1.0000   1.0000   1.0000   1.0000   1.0000   1.0000   1.0000
     1.0000   1.0000   1.0000   1.0000   1.0000   1.0000   1.0000   1.0000
     1.0000   1.0000   1.0000   1.0000   1.0000   1.0000   1.0000   1.0000
     1.0000   1.0001   0.0000   0.0000   0.0000   0.0000   0.0000

          k = 0.0000 0.0962-0.3100 (  2426 PWs)   bands (ev):

  -117.8292-117.8292 -72.0204 -72.0204 -72.0170 -72.0170 -72.0170 -72.0170
   -10.8078 -10.8078   0.5408   0.5408   0.6188   0.6188   0.6281   0.6281
     1.2357   1.2357   1.2371   1.2371   3.4201   3.4201   5.0955   5.0955
     5.1946   5.1946   8.6021   8.6021  14.6118  14.6119  17.0837

     occupation numbers 
     1.0000   1.0000   1.0000   1.0000   1.0000   1.0000   1.0000   1.0000
     1.0000   1.0000   1.0000   1.0000   1.0000   1.0000   1.0000   1.0000
     1.0000   1.0000   1.0000   1.0000   1.0000   1.0000   1.0000   1.0000
     1.0000   1.0000   0.0000   0.0000   0.0000   0.0000   0.0000

          k = 0.0000 0.1925 0.0000 (  2407 PWs)   bands (ev):

  -117.8292-117.8292 -72.0206 -72.0200 -72.0173 -72.0171 -72.0170 -72.0169
   -10.9485 -10.5666   0.5150   0.6071   0.6245   0.7051   0.7558   1.1106
     1.1337   1.1642   1.2916   1.4088   1.9089   4.1475   4.4518   4.7120
     5.3570   5.3873   7.3846  10.7070  13.0364  15.4444  16.7109

     occupation numbers 
     1.0000   1.0000   1.0000   1.0000   1.0000   1.0000   1.0000   1.0000
     1.0000   1.0000   1.0000   1.0000   1.0000   1.0000   1.0000   1.0000
     1.0000   1.0000   1.0000   1.0000   1.0000   1.0000   1.0000   1.0000
     1.0002   1.0005   0.0000   0.0000   0.0000   0.0000   0.0000

          k = 0.0000 0.1925 0.0775 (  2405 PWs)   bands (ev):

  -117.8292-117.8292 -72.0206 -72.0200 -72.0172 -72.0171 -72.0170 -72.0169
   -10.9343 -10.5814   0.5098   0.6109   0.6207   0.6963   0.7480   1.0175
     1.1450   1.1702   1.2879   1.3521   2.1185   4.1367   4.4068   4.7384
     5.3195   5.3622   7.5297  10.5722  13.1304  15.4594  16.6508

     occupation numbers 
     1.0000   1.0000   1.0000   1.0000   1.0000   1.0000   1.0000   1.0000
     1.0000   1.0000   1.0000   1.0000   1.0000   1.0000   1.0000   1.0000
     1.0000   1.0000   1.0000   1.0000   1.0000   1.0000   1.0000   1.0000
     1.0001   1.0003   0.0000   0.0000   0.0000   0.0000   0.0000

          k = 0.0000 0.1925 0.1550 (  2413 PWs)   bands (ev):

  -117.8292-117.8292 -72.0206 -72.0202 -72.0172 -72.0171 -72.0170 -72.0169
   -10.8935 -10.6234   0.4974   0.6097   0.6224   0.6731   0.7269   0.8444
     1.1706   1.1865   1.2767   1.3071   2.5141   3.9910   4.4266   4.8132
     5.2014   5.2904   7.9198  10.2033  13.4067  15.4346  16.4405

     occupation numbers 
     1.0000   1.0000   1.0000   1.0000   1.0000   1.0000   1.0000   1.0000
     1.0000   1.0000   1.0000   1.0000   1.0000   1.0000   1.0000   1.0000
     1.0000   1.0000   1.0000   1.0000   1.0000   1.0000   1.0000   1.0000
     1.0000   1.0000   0.0000   0.0000   0.0000   0.0000   0.0000

          k = 0.0000 0.1925 0.2325 (  2421 PWs)   bands (ev):

  -117.8292-117.8292 -72.0206 -72.0202 -72.0172 -72.0171 -72.0170 -72.0170
   -10.8322 -10.6860   0.4922   0.5696   0.6417   0.6602   0.6980   0.7288
     1.2049   1.2097   1.2586   1.2750   2.9390   3.6997   4.5777   4.9242
     5.0127   5.1823   8.4629   9.6774  13.8554  15.0877  16.2771

     occupation numbers 
     1.0000   1.0000   1.0000   1.0000   1.0000   1.0000   1.0000   1.0000
     1.0000   1.0000   1.0000   1.0000   1.0000   1.0000   1.0000   1.0000
     1.0000   1.0000   1.0000   1.0000   1.0000   1.0000   1.0000   1.0000
     1.0000   1.0000   0.0000   0.0000   0.0000   0.0000   0.0000

          k = 0.0000 0.1925-0.3100 (  2426 PWs)   bands (ev):

  -117.8292-117.8292 -72.0204 -72.0204 -72.0171 -72.0171 -72.0171 -72.0171
   -10.7593 -10.7593   0.5148   0.5148   0.6679   0.6679   0.6788   0.6788
     1.2352   1.2352   1.2411   1.2411   3.3416   3.3416   4.7892   4.7892
     5.0539   5.0539   9.0732   9.0732  14.4516  14.4516  16.4063

     occupation numbers 
     1.0000   1.0000   1.0000   1.0000   1.0000   1.0000   1.0000   1.0000
     1.0000   1.0000   1.0000   1.0000   1.0000   1.0000   1.0000   1.0000
     1.0000   1.0000   1.0000   1.0000   1.0000   1.0000   1.0000   1.0000
     1.0000   1.0000   0.0000   0.0000   0.0000   0.0000   0.0000

          k = 0.0000 0.2887 0.0000 (  2409 PWs)   bands (ev):

  -117.8292-117.8292 -72.0206 -72.0200 -72.0173 -72.0172 -72.0172 -72.0169
   -10.8532 -10.5313   0.5004   0.6516   0.6523   0.7710   0.8419   1.0951
     1.1224   1.1783   1.2969   1.4389   2.1404   3.4747   3.9482   4.4642
     5.1844   5.2459   8.2539  11.3660  13.1079  14.3485  15.7948

     occupation numbers 
     1.0000   1.0000   1.0000   1.0000   1.0000   1.0000   1.0000   1.0000
     1.0000   1.0000   1.0000   1.0000   1.0000   1.0000   1.0000   1.0000
     1.0000   1.0000   1.0000   1.0000   1.0000   1.0000   1.0000   1.0000
     1.0000   1.0000   0.0000   0.0000   0.0000   0.0000   0.0000

          k = 0.0000 0.2887 0.0775 (  2411 PWs)   bands (ev):

  -117.8292-117.8292 -72.0206 -72.0201 -72.0173 -72.0172 -72.0172 -72.0169
   -10.8410 -10.5436   0.4945   0.6420   0.6579   0.7637   0.8328   1.0309
     1.1311   1.1831   1.2926   1.3928   2.2894   3.4947   3.9299   4.4949
     5.1666   5.2169   8.3463  11.2096  13.1657  14.3786  15.7822

     occupation numbers 
     1.0000   1.0000   1.0000   1.0000   1.0000   1.0000   1.0000   1.0000
     1.0000   1.0000   1.0000   1.0000   1.0000   1.0000   1.0000   1.0000
     1.0000   1.0000   1.0000   1.0000   1.0000   1.0000   1.0000   1.0000
     1.0000   1.0000   0.0000   0.0000   0.0000   0.0000   0.0000

          k = 0.0000 0.2887 0.1550 (  2417 PWs)   bands (ev):

  -117.8292-117.8292 -72.0206 -72.0202 -72.0173 -72.0172 -72.0171 -72.0170
   -10.8061 -10.5784   0.4814   0.6117   0.6744   0.7467   0.8079   0.8925
     1.1634   1.1966   1.2803   1.3384   2.5784   3.4696   3.9902   4.5820
     5.0769   5.1339   8.6242  10.7950  13.3447  14.4089  15.7429

     occupation numbers 
     1.0000   1.0000   1.0000   1.0000   1.0000   1.0000   1.0000   1.0000
     1.0000   1.0000   1.0000   1.0000   1.0000   1.0000   1.0000   1.0000
     1.0000   1.0000   1.0000   1.0000   1.0000   1.0000   1.0000   1.0000
     1.0000   1.0000   0.0000   0.0000   0.0000   0.0000   0.0000

          k = 0.0000 0.2887 0.2325 (  2416 PWs)   bands (ev):

  -117.8292-117.8292 -72.0205 -72.0202 -72.0173 -72.0172 -72.0171 -72.0170
   -10.7539 -10.6306   0.4768   0.5557   0.7009   0.7362   0.7729   0.7935
     1.2064   1.2164   1.2616   1.2952   2.8624   3.3199   4.2374   4.7108
     4.8718   5.0091   9.0699  10.2342  13.6367  14.2944  15.7925

     occupation numbers 
     1.0000   1.0000   1.0000   1.0000   1.0000   1.0000   1.0000   1.0000
     1.0000   1.0000   1.0000   1.0000   1.0000   1.0000   1.0000   1.0000
     1.0000   1.0000   1.0000   1.0000   1.0000   1.0000   1.0000   1.0000
     1.0000   1.0000   0.0000   0.0000   0.0000   0.0000   0.0000

          k = 0.0000 0.2887-0.3100 (  2404 PWs)   bands (ev):

  -117.8292-117.8292 -72.0204 -72.0204 -72.0172 -72.0172 -72.0170 -72.0170
   -10.6922 -10.6922   0.5002   0.5002   0.7352   0.7352   0.7489   0.7489
     1.2393   1.2393   1.2518   1.2518   3.1090   3.1090   4.5682   4.5682
     4.8608   4.8608   9.6309   9.6309  13.9918  13.9918  16.0669

     occupation numbers 
     1.0000   1.0000   1.0000   1.0000   1.0000   1.0000   1.0000   1.0000
     1.0000   1.0000   1.0000   1.0000   1.0000   1.0000   1.0000   1.0000
     1.0000   1.0000   1.0000   1.0000   1.0000   1.0000   1.0000   1.0000
     1.0000   1.0000   0.0000   0.0000   0.0000   0.0000   0.0000

          k = 0.0000 0.3849 0.0000 (  2407 PWs)   bands (ev):

  -117.8292-117.8292 -72.0205 -72.0201 -72.0174 -72.0173 -72.0173 -72.0170
   -10.7493 -10.5025   0.5089   0.6859   0.6876   0.8771   0.9355   1.0514
     1.1586   1.2098   1.3031   1.4485   2.3460   2.9192   3.5329   4.2143
     4.9516   5.0992   9.1237  11.8887  12.9654  13.5128  15.2380

     occupation numbers 
     1.0000   1.0000   1.0000   1.0000   1.0000   1.0000   1.0000   1.0000
     1.0000   1.0000   1.0000   1.0000   1.0000   1.0000   1.0000   1.0000
     1.0000   1.0000   1.0000   1.0000   1.0000   1.0000   1.0000   1.0000
     1.0000   1.0000   0.0000   0.0000   0.0000   0.0000   0.0000

          k = 0.0000 0.3849 0.0775 (  2412 PWs)   bands (ev):

  -117.8292-117.8292 -72.0205 -72.0201 -72.0174 -72.0173 -72.0172 -72.0170
   -10.7397 -10.5116   0.5016   0.6697   0.6955   0.8701   0.9244   1.0210
     1.1574   1.2128   1.2985   1.4194   2.3857   2.9730   3.5592   4.2497
     4.9615   5.0665   9.1742  11.7169  12.9831  13.5501  15.2687

     occupation numbers 
     1.0000   1.0000   1.0000   1.0000   1.0000   1.0000   1.0000   1.0000
     1.0000   1.0000   1.0000   1.0000   1.0000   1.0000   1.0000   1.0000
     1.0000   1.0000   1.0000   1.0000   1.0000   1.0000   1.0000   1.0000
     1.0000   1.0000   0.0000   0.0000   0.0000   0.0000   0.0000

          k = 0.0000 0.3849 0.1550 (  2414 PWs)   bands (ev):

  -117.8292-117.8292 -72.0205 -72.0202 -72.0174 -72.0174 -72.0172 -72.0170
   -10.7123 -10.5376   0.4857   0.6229   0.7186   0.8537   0.8937   0.9377
     1.1820   1.2216   1.2863   1.3690   2.4773   2.9854   3.7539   4.3492
     4.9386   4.9731   9.3471  11.2778  13.0673  13.5901  15.3529

     occupation numbers 
     1.0000   1.0000   1.0000   1.0000   1.0000   1.0000   1.0000   1.0000
     1.0000   1.0000   1.0000   1.0000   1.0000   1.0000   1.0000   1.0000
     1.0000   1.0000   1.0000   1.0000   1.0000   1.0000   1.0000   1.0000
     1.0000   1.0000   0.0000   0.0000   0.0000   0.0000   0.0000

          k = 0.0000 0.3849 0.2325 (  2409 PWs)   bands (ev):

  -117.8292-117.8292 -72.0204 -72.0203 -72.0174 -72.0173 -72.0171 -72.0170
   -10.6716 -10.5770   0.4784   0.5556   0.7549   0.8395   0.8496   0.8714
     1.2252   1.2351   1.2697   1.3209   2.5970   2.8785   4.1228   4.4956
     4.7953   4.8326   9.6756  10.7165  13.2181  13.5408  15.5664

     occupation numbers 
     1.0000   1.0000   1.0000   1.0000   1.0000   1.0000   1.0000   1.0000
     1.0000   1.0000   1.0000   1.0000   1.0000   1.0000   1.0000   1.0000
     1.0000   1.0000   1.0000   1.0000   1.0000   1.0000   1.0000   1.0000
     1.0000   1.0000   0.0000   0.0000   0.0000   0.0000   0.0000

          k = 0.0000 0.3849-0.3100 (  2412 PWs)   bands (ev):

  -117.8292-117.8292 -72.0204 -72.0204 -72.0174 -72.0174 -72.0171 -72.0171
   -10.6240 -10.6240   0.4997   0.4997   0.8007   0.8007   0.8423   0.8423
     1.2517   1.2517   1.2731   1.2731   2.7355   2.7355   4.5063   4.5063
     4.6653   4.6653  10.1521  10.1521  13.3960  13.3960  15.9884

     occupation numbers 
     1.0000   1.0000   1.0000   1.0000   1.0000   1.0000   1.0000   1.0000
     1.0000   1.0000   1.0000   1.0000   1.0000   1.0000   1.0000   1.0000
     1.0000   1.0000   1.0000   1.0000   1.0000   1.0000   1.0000   1.0000
     1.0000   1.0000   0.0000   0.0000   0.0000   0.0000   0.0000

          k = 0.0000 0.4811 0.0000 (  2407 PWs)   bands (ev):

  -117.8292-117.8292 -72.0205 -72.0201 -72.0175 -72.0174 -72.0173 -72.0170
   -10.6624 -10.4908   0.5264   0.7063   0.7513   0.9788   1.0077   1.0277
     1.1995   1.2471   1.3093   1.4305   2.2371   2.7120   3.3567   4.0271
     4.7080   4.9886   9.9089  12.2461  12.4060  13.0265  15.0718

     occupation numbers 
     1.0000   1.0000   1.0000   1.0000   1.0000   1.0000   1.0000   1.0000
     1.0000   1.0000   1.0000   1.0000   1.0000   1.0000   1.0000   1.0000
     1.0000   1.0000   1.0000   1.0000   1.0000   1.0000   1.0000   1.0000
     1.0000   1.0000   0.0000   0.0000   0.0000   0.0000   0.0000

          k = 0.0000 0.4811 0.0775 (  2402 PWs)   bands (ev):

  -117.8292-117.8292 -72.0205 -72.0202 -72.0175 -72.0174 -72.0172 -72.0170
   -10.6554 -10.4968   0.5177   0.7161   0.7226   0.9713   0.9948   1.0140
     1.2090   1.2485   1.3048   1.4175   2.2150   2.7059   3.4670   4.0661
     4.7445   4.9532   9.9188  11.9810  12.5605  13.0307  15.0903

     occupation numbers 
     1.0000   1.0000   1.0000   1.0000   1.0000   1.0000   1.0000   1.0000
     1.0000   1.0000   1.0000   1.0000   1.0000   1.0000   1.0000   1.0000
     1.0000   1.0000   1.0000   1.0000   1.0000   1.0000   1.0000   1.0000
     1.0000   1.0000   0.0000   0.0000   0.0000   0.0000   0.0000

          k = 0.0000 0.4811 0.1550 (  2397 PWs)   bands (ev):

  -117.8292-117.8292 -72.0205 -72.0202 -72.0174 -72.0174 -72.0172 -72.0170
   -10.6357 -10.5143   0.4986   0.6490   0.7446   0.9531   0.9584   0.9856
     1.2360   1.2526   1.2938   1.3861   2.2133   2.6281   3.7775   4.1754
     4.7917   4.8524   9.9857  11.5391  12.7085  13.0291  15.1849

     occupation numbers 
     1.0000   1.0000   1.0000   1.0000   1.0000   1.0000   1.0000   1.0000
     1.0000   1.0000   1.0000   1.0000   1.0000   1.0000   1.0000   1.0000
     1.0000   1.0000   1.0000   1.0000   1.0000   1.0000   1.0000   1.0000
     1.0000   1.0000   0.0000   0.0000   0.0000   0.0000   0.0000

          k = 0.0000 0.4811 0.2325 (  2412 PWs)   bands (ev):

  -117.8292-117.8292 -72.0205 -72.0203 -72.0174 -72.0174 -72.0172 -72.0171
   -10.6068 -10.5410   0.4876   0.5648   0.7893   0.9051   0.9398   0.9594
     1.2595   1.2722   1.2809   1.3488   2.2704   2.5004   4.1693   4.3353
     4.7007   4.7358  10.1843  11.0310  12.8258  12.9950  15.4520

     occupation numbers 
     1.0000   1.0000   1.0000   1.0000   1.0000   1.0000   1.0000   1.0000
     1.0000   1.0000   1.0000   1.0000   1.0000   1.0000   1.0000   1.0000
     1.0000   1.0000   1.0000   1.0000   1.0000   1.0000   1.0000   1.0000
     1.0000   1.0000   0.0000   0.0000   0.0000   0.0000   0.0000

          k = 0.0000 0.4811-0.3100 (  2416 PWs)   bands (ev):

  -117.8292-117.8292 -72.0204 -72.0204 -72.0174 -72.0174 -72.0172 -72.0172
   -10.5734 -10.5734   0.5064   0.5064   0.8454   0.8454   0.9424   0.9424
     1.2691   1.2691   1.3106   1.3106   2.3725   2.3725   4.5183   4.5183
     4.5196   4.5196  10.5483  10.5483  12.9230  12.9230  15.9400

     occupation numbers 
     1.0000   1.0000   1.0000   1.0000   1.0000   1.0000   1.0000   1.0000
     1.0000   1.0000   1.0000   1.0000   1.0000   1.0000   1.0000   1.0000
     1.0000   1.0000   1.0000   1.0000   1.0000   1.0000   1.0000   1.0000
     1.0000   1.0000   0.0000   0.0000   0.0000   0.0000   0.0000

          k = 0.0000-0.5774 0.0000 (  2396 PWs)   bands (ev):

  -117.8292-117.8292 -72.0204 -72.0202 -72.0175 -72.0174 -72.0173 -72.0170
   -10.6253 -10.4915   0.5333   0.7117   0.8037   0.9509   1.0344   1.0966
     1.2515   1.2647   1.3122   1.3586   2.1251   2.6512   3.3779   3.9571
     4.5876   4.9473  10.3099  12.0429  12.4576  12.7629  15.0387

     occupation numbers 
     1.0000   1.0000   1.0000   1.0000   1.0000   1.0000   1.0000   1.0000
     1.0000   1.0000   1.0000   1.0000   1.0000   1.0000   1.0000   1.0000
     1.0000   1.0000   1.0000   1.0000   1.0000   1.0000   1.0000   1.0000
     1.0000   1.0000   0.0000   0.0000   0.0000   0.0000   0.0000

          k = 0.0000-0.5774 0.0775 (  2390 PWs)   bands (ev):

  -117.8292-117.8292 -72.0204 -72.0202 -72.0174 -72.0174 -72.0172 -72.0170
   -10.6197 -10.4960   0.5242   0.7221   0.7607   0.9511   1.0208   1.0915
     1.2612   1.2655   1.3076   1.3588   2.1055   2.5976   3.5123   3.9975
     4.6363   4.9111  10.2924  11.8980  12.5241  12.7628  15.0430

     occupation numbers 
     1.0000   1.0000   1.0000   1.0000   1.0000   1.0000   1.0000   1.0000
     1.0000   1.0000   1.0000   1.0000   1.0000   1.0000   1.0000   1.0000
     1.0000   1.0000   1.0000   1.0000   1.0000   1.0000   1.0000   1.0000
     1.0000   1.0000   0.0000   0.0000   0.0000   0.0000   0.0000

          k = 0.0000-0.5774 0.1550 (  2400 PWs)   bands (ev):

  -117.8292-117.8292 -72.0205 -72.0202 -72.0174 -72.0174 -72.0173 -72.0170
   -10.6039 -10.5092   0.5041   0.6654   0.7526   0.9543   0.9819   1.0644
     1.2677   1.2887   1.2972   1.3579   2.0909   2.4716   3.8355   4.1107
     4.7168   4.8076  10.2921  11.5605  12.6249  12.7612  15.1259

     occupation numbers 
     1.0000   1.0000   1.0000   1.0000   1.0000   1.0000   1.0000   1.0000
     1.0000   1.0000   1.0000   1.0000   1.0000   1.0000   1.0000   1.0000
     1.0000   1.0000   1.0000   1.0000   1.0000   1.0000   1.0000   1.0000
     1.0000   1.0000   0.0000   0.0000   0.0000   0.0000   0.0000

          k = 0.0000-0.5774 0.2325 (  2402 PWs)   bands (ev):

  -117.8292-117.8292 -72.0205 -72.0202 -72.0174 -72.0174 -72.0172 -72.0171
   -10.5809 -10.5296   0.4920   0.5707   0.8005   0.9248   0.9657   1.0245
     1.2717   1.2864   1.3190   1.3531   2.1251   2.3304   4.2124   4.2758
     4.6517   4.7052  10.4128  11.1274  12.6970  12.7545  15.4028

     occupation numbers 
     1.0000   1.0000   1.0000   1.0000   1.0000   1.0000   1.0000   1.0000
     1.0000   1.0000   1.0000   1.0000   1.0000   1.0000   1.0000   1.0000
     1.0000   1.0000   1.0000   1.0000   1.0000   1.0000   1.0000   1.0000
     1.0000   1.0000   0.0000   0.0000   0.0000   0.0000   0.0000

          k = 0.0000-0.5774-0.3100 (  2416 PWs)   bands (ev):

  -117.8292-117.8292 -72.0204 -72.0204 -72.0174 -72.0174 -72.0172 -72.0172
   -10.5547 -10.5547   0.5101   0.5101   0.8606   0.8606   0.9892   0.9892
     1.2778   1.2778   1.3408   1.3408   2.2090   2.2090   4.4656   4.4656
     4.5301   4.5301  10.7073  10.7073  12.7365  12.7365  15.9109

     occupation numbers 
     1.0000   1.0000   1.0000   1.0000   1.0000   1.0000   1.0000   1.0000
     1.0000   1.0000   1.0000   1.0000   1.0000   1.0000   1.0000   1.0000
     1.0000   1.0000   1.0000   1.0000   1.0000   1.0000   1.0000   1.0000
     1.0000   1.0000   0.0000   0.0000   0.0000   0.0000   0.0000

          k = 0.0833 0.1443 0.0000 (  2407 PWs)   bands (ev):

  -117.8292-117.8292 -72.0206 -72.0200 -72.0172 -72.0171 -72.0170 -72.0170
   -10.9698 -10.5753   0.5259   0.5907   0.6177   0.6916   0.7390   1.1155
     1.1420   1.1618   1.2899   1.3947   1.8609   4.4202   4.4550   4.8203
     5.3924   5.4039   7.1621  10.5345  13.0180  15.8081  16.8648

     occupation numbers 
     1.0000   1.0000   1.0000   1.0000   1.0000   1.0000   1.0000   1.0000
     1.0000   1.0000   1.0000   1.0000   1.0000   1.0000   1.0000   1.0000
     1.0000   1.0000   1.0000   1.0000   1.0000   1.0000   1.0000   1.0000
     1.0005   1.0007   0.0000   0.0000   0.0000   0.0000   0.0000

          k = 0.0833 0.1443 0.0775 (  2411 PWs)   bands (ev):

  -117.8292-117.8292 -72.0206 -72.0200 -72.0172 -72.0171 -72.0170 -72.0169
   -10.9551 -10.5906   0.5206   0.5935   0.6162   0.6822   0.7316   1.0154
     1.1508   1.1686   1.2864   1.3395   2.0806   4.3706   4.4532   4.8185
     5.3556   5.3795   7.3259  10.4057  13.1160  15.8145  16.8679

     occupation numbers 
     1.0000   1.0000   1.0000   1.0000   1.0000   1.0000   1.0000   1.0000
     1.0000   1.0000   1.0000   1.0000   1.0000   1.0000   1.0000   1.0000
     1.0000   1.0000   1.0000   1.0000   1.0000   1.0000   1.0000   1.0000
     1.0002   1.0004   0.0000   0.0000   0.0000   0.0000   0.0000

          k = 0.0833 0.1443 0.1550 (  2415 PWs)   bands (ev):

  -117.8292-117.8292 -72.0206 -72.0201 -72.0172 -72.0171 -72.0170 -72.0169
   -10.9132 -10.6341   0.5077   0.6004   0.6174   0.6538   0.7118   0.8336
     1.1743   1.1856   1.2757   1.3000   2.4911   4.1237   4.5491   4.8611
     5.2471   5.3101   7.7493  10.0501  13.4058  15.7505  16.7994

     occupation numbers 
     1.0000   1.0000   1.0000   1.0000   1.0000   1.0000   1.0000   1.0000
     1.0000   1.0000   1.0000   1.0000   1.0000   1.0000   1.0000   1.0000
     1.0000   1.0000   1.0000   1.0000   1.0000   1.0000   1.0000   1.0000
     1.0000   1.0001   0.0000   0.0000   0.0000   0.0000   0.0000

          k = 0.0833 0.1443 0.2325 (  2419 PWs)   bands (ev):

  -117.8292-117.8292 -72.0205 -72.0202 -72.0172 -72.0170 -72.0170 -72.0170
   -10.8499 -10.6989   0.5016   0.5793   0.6281   0.6311   0.6861   0.7148
     1.2062   1.2092   1.2580   1.2712   2.9389   3.7767   4.6982   4.9514
     5.0864   5.2062   8.3157   9.5356  13.8808  15.2655  16.4818

     occupation numbers 
     1.0000   1.0000   1.0000   1.0000   1.0000   1.0000   1.0000   1.0000
     1.0000   1.0000   1.0000   1.0000   1.0000   1.0000   1.0000   1.0000
     1.0000   1.0000   1.0000   1.0000   1.0000   1.0000   1.0000   1.0000
     1.0000   1.0000   0.0000   0.0000   0.0000   0.0000   0.0000

          k = 0.0833 0.1443-0.3100 (  2426 PWs)   bands (ev):

  -117.8292-117.8292 -72.0204 -72.0204 -72.0171 -72.0171 -72.0170 -72.0170
   -10.7748 -10.7748   0.5238   0.5238   0.6410   0.6410   0.6720   0.6720
     1.2346   1.2346   1.2401   1.2401   3.3753   3.3753   4.8805   4.8805
     5.0860   5.0860   8.9348   8.9348  14.5262  14.5262  16.5682

     occupation numbers 
     1.0000   1.0000   1.0000   1.0000   1.0000   1.0000   1.0000   1.0000
     1.0000   1.0000   1.0000   1.0000   1.0000   1.0000   1.0000   1.0000
     1.0000   1.0000   1.0000   1.0000   1.0000   1.0000   1.0000   1.0000
     1.0000   1.0000   0.0000   0.0000   0.0000   0.0000   0.0000

          k = 0.0833 0.2406 0.0000 (  2419 PWs)   bands (ev):

  -117.8292-117.8292 -72.0206 -72.0201 -72.0173 -72.0172 -72.0171 -72.0170
   -10.8889 -10.5437   0.5174   0.6206   0.6535   0.7288   0.8151   1.1057
     1.1203   1.1676   1.2944   1.4324   2.0536   3.8008   4.0299   4.5605
     5.2571   5.2587   7.9622  11.1560  13.1110  14.8060  16.0565

     occupation numbers 
     1.0000   1.0000   1.0000   1.0000   1.0000   1.0000   1.0000   1.0000
     1.0000   1.0000   1.0000   1.0000   1.0000   1.0000   1.0000   1.0000
     1.0000   1.0000   1.0000   1.0000   1.0000   1.0000   1.0000   1.0000
     1.0000   1.0000   0.0000   0.0000   0.0000   0.0000   0.0000

          k = 0.0833 0.2406 0.0775 (  2413 PWs)   bands (ev):

  -117.8292-117.8292 -72.0206 -72.0201 -72.0173 -72.0172 -72.0171 -72.0170
   -10.8759 -10.5569   0.5113   0.6217   0.6508   0.7204   0.8068   1.0255
     1.1334   1.1757   1.2902   1.3814   2.2283   3.7933   4.0333   4.5734
     5.2237   5.2404   8.0713  11.0073  13.1844  14.8217  16.0820

     occupation numbers 
     1.0000   1.0000   1.0000   1.0000   1.0000   1.0000   1.0000   1.0000
     1.0000   1.0000   1.0000   1.0000   1.0000   1.0000   1.0000   1.0000
     1.0000   1.0000   1.0000   1.0000   1.0000   1.0000   1.0000   1.0000
     1.0000   1.0000   0.0000   0.0000   0.0000   0.0000   0.0000

          k = 0.0833 0.2406 0.1550 (  2414 PWs)   bands (ev):

  -117.8292-117.8292 -72.0206 -72.0201 -72.0172 -72.0172 -72.0171 -72.0170
   -10.8387 -10.5945   0.4972   0.6132   0.6525   0.6999   0.7846   0.8723
     1.1644   1.1915   1.2783   1.3287   2.5676   3.6890   4.1352   4.6308
     5.1265   5.1578   8.3875  10.6080  13.4054  14.8206  16.0788

     occupation numbers 
     1.0000   1.0000   1.0000   1.0000   1.0000   1.0000   1.0000   1.0000
     1.0000   1.0000   1.0000   1.0000   1.0000   1.0000   1.0000   1.0000
     1.0000   1.0000   1.0000   1.0000   1.0000   1.0000   1.0000   1.0000
     1.0000   1.0000   0.0000   0.0000   0.0000   0.0000   0.0000

          k = 0.0833 0.2406 0.2325 (  2419 PWs)   bands (ev):

  -117.8292-117.8292 -72.0205 -72.0202 -72.0172 -72.0171 -72.0171 -72.0170
   -10.7829 -10.6508   0.4908   0.5677   0.6673   0.6883   0.7554   0.7688
     1.2051   1.2129   1.2599   1.2889   2.9148   3.4828   4.3609   4.7346
     4.9363   5.0312   8.8694  10.0574  13.7668  14.6439  16.0079

     occupation numbers 
     1.0000   1.0000   1.0000   1.0000   1.0000   1.0000   1.0000   1.0000
     1.0000   1.0000   1.0000   1.0000   1.0000   1.0000   1.0000   1.0000
     1.0000   1.0000   1.0000   1.0000   1.0000   1.0000   1.0000   1.0000
     1.0000   1.0000   0.0000   0.0000   0.0000   0.0000   0.0000

          k = 0.0833 0.2406-0.3100 (  2418 PWs)   bands (ev):

  -117.8292-117.8292 -72.0204 -72.0204 -72.0172 -72.0172 -72.0171 -72.0171
   -10.7169 -10.7169   0.5131   0.5131   0.6850   0.6850   0.7373   0.7373
     1.2360   1.2360   1.2490   1.2490   3.2219   3.2219   4.6437   4.6437
     4.8917   4.8917   9.4509   9.4509  14.2260  14.2260  16.0839

     occupation numbers 
     1.0000   1.0000   1.0000   1.0000   1.0000   1.0000   1.0000   1.0000
     1.0000   1.0000   1.0000   1.0000   1.0000   1.0000   1.0000   1.0000
     1.0000   1.0000   1.0000   1.0000   1.0000   1.0000   1.0000   1.0000
     1.0000   1.0000   0.0000   0.0000   0.0000   0.0000   0.0000

          k = 0.0833 0.3368 0.0000 (  2404 PWs)   bands (ev):

  -117.8292-117.8292 -72.0205 -72.0201 -72.0173 -72.0173 -72.0172 -72.0170
   -10.7889 -10.5119   0.5245   0.6549   0.6868   0.8113   0.9081   1.0792
     1.1329   1.1911   1.3005   1.4483   2.2868   3.1910   3.6490   4.2439
     5.0561   5.0909   8.8257  11.7341  13.1688  13.8887  15.4112

     occupation numbers 
     1.0000   1.0000   1.0000   1.0000   1.0000   1.0000   1.0000   1.0000
     1.0000   1.0000   1.0000   1.0000   1.0000   1.0000   1.0000   1.0000
     1.0000   1.0000   1.0000   1.0000   1.0000   1.0000   1.0000   1.0000
     1.0000   1.0000   0.0000   0.0000   0.0000   0.0000   0.0000

          k = 0.0833 0.3368 0.0775 (  2412 PWs)   bands (ev):

  -117.8292-117.8292 -72.0206 -72.0201 -72.0173 -72.0173 -72.0172 -72.0170
   -10.7783 -10.5222   0.5177   0.6511   0.6848   0.8044   0.8980   1.0328
     1.1319   1.1995   1.2961   1.4137   2.3805   3.2183   3.6681   4.2705
     5.0421   5.0720   8.8941  11.5767  13.1769  13.9245  15.4603

     occupation numbers 
     1.0000   1.0000   1.0000   1.0000   1.0000   1.0000   1.0000   1.0000
     1.0000   1.0000   1.0000   1.0000   1.0000   1.0000   1.0000   1.0000
     1.0000   1.0000   1.0000   1.0000   1.0000   1.0000   1.0000   1.0000
     1.0000   1.0000   0.0000   0.0000   0.0000   0.0000   0.0000

          k = 0.0833 0.3368 0.1550 (  2415 PWs)   bands (ev):

  -117.8292-117.8292 -72.0205 -72.0202 -72.0173 -72.0173 -72.0172 -72.0170
   -10.7478 -10.5518   0.5020   0.6229   0.6966   0.7886   0.8698   0.9151
     1.1653   1.2128   1.2843   1.3612   2.5629   3.1994   3.8289   4.3554
     4.9489   5.0242   9.1121  11.1542  13.2634  13.9638  15.5183

     occupation numbers 
     1.0000   1.0000   1.0000   1.0000   1.0000   1.0000   1.0000   1.0000
     1.0000   1.0000   1.0000   1.0000   1.0000   1.0000   1.0000   1.0000
     1.0000   1.0000   1.0000   1.0000   1.0000   1.0000   1.0000   1.0000
     1.0000   1.0000   0.0000   0.0000   0.0000   0.0000   0.0000

          k = 0.0833 0.3368 0.2325 (  2416 PWs)   bands (ev):

  -117.8292-117.8292 -72.0205 -72.0203 -72.0173 -72.0173 -72.0171 -72.0170
   -10.7025 -10.5963   0.4940   0.5671   0.7238   0.7757   0.8232   0.8372
     1.2122   1.2289   1.2681   1.3138   2.7447   3.0775   4.1585   4.4919
     4.7911   4.8783   9.4918  10.5911  13.4554  13.8986  15.5967

     occupation numbers 
     1.0000   1.0000   1.0000   1.0000   1.0000   1.0000   1.0000   1.0000
     1.0000   1.0000   1.0000   1.0000   1.0000   1.0000   1.0000   1.0000
     1.0000   1.0000   1.0000   1.0000   1.0000   1.0000   1.0000   1.0000
     1.0000   1.0000   0.0000   0.0000   0.0000   0.0000   0.0000

          k = 0.0833 0.3368-0.3100 (  2416 PWs)   bands (ev):

  -117.8292-117.8292 -72.0204 -72.0204 -72.0173 -72.0173 -72.0171 -72.0171
   -10.6492 -10.6492   0.5144   0.5144   0.7564   0.7564   0.8063   0.8063
     1.2441   1.2441   1.2681   1.2681   2.9167   2.9167   4.5080   4.5080
     4.6877   4.6877  10.0067  10.0067  13.6997  13.6997  15.8354

     occupation numbers 
     1.0000   1.0000   1.0000   1.0000   1.0000   1.0000   1.0000   1.0000
     1.0000   1.0000   1.0000   1.0000   1.0000   1.0000   1.0000   1.0000
     1.0000   1.0000   1.0000   1.0000   1.0000   1.0000   1.0000   1.0000
     1.0000   1.0000   0.0000   0.0000   0.0000   0.0000   0.0000

          k = 0.0833 0.4330 0.0000 (  2393 PWs)   bands (ev):

  -117.8292-117.8292 -72.0205 -72.0201 -72.0174 -72.0173 -72.0172 -72.0170
   -10.6923 -10.4927   0.5391   0.6924   0.7400   0.9219   0.9921   1.0389
     1.1721   1.2226   1.3089   1.4528   2.3429   2.8007   3.4050   3.9796
     4.8051   4.9454   9.6736  12.1381  12.8461  13.2507  15.1475

     occupation numbers 
     1.0000   1.0000   1.0000   1.0000   1.0000   1.0000   1.0000   1.0000
     1.0000   1.0000   1.0000   1.0000   1.0000   1.0000   1.0000   1.0000
     1.0000   1.0000   1.0000   1.0000   1.0000   1.0000   1.0000   1.0000
     1.0000   1.0000   0.0000   0.0000   0.0000   0.0000   0.0000

          k = 0.0833 0.4330 0.0775 (  2399 PWs)   bands (ev):

  -117.8292-117.8292 -72.0205 -72.0202 -72.0174 -72.0173 -72.0172 -72.0170
   -10.6843 -10.4998   0.5320   0.6926   0.7261   0.9150   0.9795   1.0150
     1.1712   1.2310   1.3050   1.4335   2.3345   2.8276   3.4841   4.0188
     4.8266   4.9140   9.7051  11.9738  12.8561  13.2784  15.1627

     occupation numbers 
     1.0000   1.0000   1.0000   1.0000   1.0000   1.0000   1.0000   1.0000
     1.0000   1.0000   1.0000   1.0000   1.0000   1.0000   1.0000   1.0000
     1.0000   1.0000   1.0000   1.0000   1.0000   1.0000   1.0000   1.0000
     1.0000   1.0000   0.0000   0.0000   0.0000   0.0000   0.0000

          k = 0.0833 0.4330 0.1550 (  2406 PWs)   bands (ev):

  -117.8292-117.8292 -72.0205 -72.0202 -72.0174 -72.0173 -72.0172 -72.0171
   -10.6617 -10.5205   0.5152   0.6511   0.7340   0.8988   0.9450   0.9528
     1.1950   1.2430   1.2961   1.3920   2.3580   2.7888   3.7539   4.1348
     4.7786   4.8806   9.8258  11.5533  12.9194  13.3047  15.2004

     occupation numbers 
     1.0000   1.0000   1.0000   1.0000   1.0000   1.0000   1.0000   1.0000
     1.0000   1.0000   1.0000   1.0000   1.0000   1.0000   1.0000   1.0000
     1.0000   1.0000   1.0000   1.0000   1.0000   1.0000   1.0000   1.0000
     1.0000   1.0000   0.0000   0.0000   0.0000   0.0000   0.0000

          k = 0.0833 0.4330 0.2325 (  2413 PWs)   bands (ev):

  -117.8292-117.8292 -72.0205 -72.0203 -72.0174 -72.0174 -72.0172 -72.0171
   -10.6284 -10.5519   0.5052   0.5791   0.7724   0.8792   0.8927   0.9101
     1.2330   1.2537   1.2888   1.3468   2.4337   2.6741   4.1097   4.3225
     4.6206   4.8013  10.0864  11.0216  13.0327  13.2673  15.3448

     occupation numbers 
     1.0000   1.0000   1.0000   1.0000   1.0000   1.0000   1.0000   1.0000
     1.0000   1.0000   1.0000   1.0000   1.0000   1.0000   1.0000   1.0000
     1.0000   1.0000   1.0000   1.0000   1.0000   1.0000   1.0000   1.0000
     1.0000   1.0000   0.0000   0.0000   0.0000   0.0000   0.0000

          k = 0.0833 0.4330-0.3100 (  2408 PWs)   bands (ev):

  -117.8292-117.8292 -72.0204 -72.0204 -72.0174 -72.0174 -72.0171 -72.0171
   -10.5897 -10.5897   0.5238   0.5238   0.8250   0.8250   0.8892   0.8892
     1.2557   1.2557   1.3053   1.3053   2.5455   2.5455   4.3919   4.3919
     4.5961   4.5961  10.5014  10.5014  13.1629  13.1629  15.6739

     occupation numbers 
     1.0000   1.0000   1.0000   1.0000   1.0000   1.0000   1.0000   1.0000
     1.0000   1.0000   1.0000   1.0000   1.0000   1.0000   1.0000   1.0000
     1.0000   1.0000   1.0000   1.0000   1.0000   1.0000   1.0000   1.0000
     1.0000   1.0000   0.0000   0.0000   0.0000   0.0000   0.0000

          k = 0.0833 0.5292 0.0000 (  2396 PWs)   bands (ev):

  -117.8292-117.8292 -72.0204 -72.0202 -72.0175 -72.0174 -72.0172 -72.0170
   -10.6265 -10.4907   0.5466   0.7077   0.8217   0.9807   1.0142   1.0775
     1.2153   1.2485   1.3217   1.3992   2.1753   2.6784   3.3755   3.8638
     4.5876   4.8606  10.3432  12.2504  12.4523  12.8851  15.0670

     occupation numbers 
     1.0000   1.0000   1.0000   1.0000   1.0000   1.0000   1.0000   1.0000
     1.0000   1.0000   1.0000   1.0000   1.0000   1.0000   1.0000   1.0000
     1.0000   1.0000   1.0000   1.0000   1.0000   1.0000   1.0000   1.0000
     1.0000   1.0000   0.0000   0.0000   0.0000   0.0000   0.0000

          k = 0.0833 0.5292 0.0775 (  2396 PWs)   bands (ev):

  -117.8292-117.8292 -72.0204 -72.0202 -72.0174 -72.0174 -72.0172 -72.0170
   -10.6209 -10.4954   0.5396   0.7151   0.7820   0.9743   1.0052   1.0661
     1.2249   1.2515   1.3204   1.3962   2.1552   2.6358   3.4932   3.9151
     4.6322   4.8252  10.3389  12.0667  12.5489  12.8844  15.0368

     occupation numbers 
     1.0000   1.0000   1.0000   1.0000   1.0000   1.0000   1.0000   1.0000
     1.0000   1.0000   1.0000   1.0000   1.0000   1.0000   1.0000   1.0000
     1.0000   1.0000   1.0000   1.0000   1.0000   1.0000   1.0000   1.0000
     1.0000   1.0000   0.0000   0.0000   0.0000   0.0000   0.0000

          k = 0.0833 0.5292 0.1550 (  2396 PWs)   bands (ev):

  -117.8292-117.8292 -72.0205 -72.0202 -72.0174 -72.0174 -72.0172 -72.0170
   -10.6049 -10.5088   0.5230   0.6862   0.7448   0.9645   0.9766   1.0309
     1.2445   1.2591   1.3212   1.3869   2.1434   2.5235   3.7682   4.0714
     4.6581   4.7692  10.3675  11.7051  12.6600  12.8773  15.0332

     occupation numbers 
     1.0000   1.0000   1.0000   1.0000   1.0000   1.0000   1.0000   1.0000
     1.0000   1.0000   1.0000   1.0000   1.0000   1.0000   1.0000   1.0000
     1.0000   1.0000   1.0000   1.0000   1.0000   1.0000   1.0000   1.0000
     1.0000   1.0000   0.0000   0.0000   0.0000   0.0000   0.0000

          k = 0.0833 0.5292 0.2325 (  2397 PWs)   bands (ev):

  -117.8292-117.8292 -72.0204 -72.0203 -72.0174 -72.0174 -72.0172 -72.0171
   -10.5816 -10.5295   0.5129   0.5932   0.7899   0.9198   0.9643   0.9964
     1.2568   1.2653   1.3330   1.3719   2.1825   2.3893   4.0518   4.3271
     4.5091   4.7464  10.5146  11.2580  12.7452  12.8533  15.1959

     occupation numbers 
     1.0000   1.0000   1.0000   1.0000   1.0000   1.0000   1.0000   1.0000
     1.0000   1.0000   1.0000   1.0000   1.0000   1.0000   1.0000   1.0000
     1.0000   1.0000   1.0000   1.0000   1.0000   1.0000   1.0000   1.0000
     1.0000   1.0000   0.0000   0.0000   0.0000   0.0000   0.0000

          k = 0.0833 0.5292-0.3100 (  2400 PWs)   bands (ev):

  -117.8292-117.8292 -72.0204 -72.0204 -72.0174 -72.0174 -72.0171 -72.0171
   -10.5550 -10.5550   0.5321   0.5321   0.8518   0.8518   0.9744   0.9744
     1.2635   1.2635   1.3527   1.3527   2.2693   2.2693   4.2940   4.2940
     4.5954   4.5954  10.8260  10.8260  12.8089  12.8089  15.5634

     occupation numbers 
     1.0000   1.0000   1.0000   1.0000   1.0000   1.0000   1.0000   1.0000
     1.0000   1.0000   1.0000   1.0000   1.0000   1.0000   1.0000   1.0000
     1.0000   1.0000   1.0000   1.0000   1.0000   1.0000   1.0000   1.0000
     1.0000   1.0000   0.0000   0.0000   0.0000   0.0000   0.0000

          k = 0.1667 0.2887 0.0000 (  2417 PWs)   bands (ev):

  -117.8292-117.8292 -72.0206 -72.0201 -72.0173 -72.0173 -72.0172 -72.0171
   -10.8032 -10.5157   0.5599   0.6145   0.7023   0.7735   0.9011   1.1063
     1.1066   1.1821   1.2992   1.4487   2.2585   3.4466   3.5652   4.2438
     5.0432   5.0973   8.7397  11.6881  13.2604  14.1630  15.4259

     occupation numbers 
     1.0000   1.0000   1.0000   1.0000   1.0000   1.0000   1.0000   1.0000
     1.0000   1.0000   1.0000   1.0000   1.0000   1.0000   1.0000   1.0000
     1.0000   1.0000   1.0000   1.0000   1.0000   1.0000   1.0000   1.0000
     1.0000   1.0000   0.0000   0.0000   0.0000   0.0000   0.0000

          k = 0.1667 0.2887 0.0775 (  2412 PWs)   bands (ev):

  -117.8292-117.8292 -72.0205 -72.0201 -72.0173 -72.0173 -72.0172 -72.0171
   -10.7921 -10.5264   0.5511   0.6156   0.6988   0.7667   0.8913   1.0350
     1.1220   1.1949   1.2950   1.4126   2.3701   3.4138   3.6455   4.2538
     5.0086   5.0962   8.8154  11.5376  13.2683  14.1750  15.5587

     occupation numbers 
     1.0000   1.0000   1.0000   1.0000   1.0000   1.0000   1.0000   1.0000
     1.0000   1.0000   1.0000   1.0000   1.0000   1.0000   1.0000   1.0000
     1.0000   1.0000   1.0000   1.0000   1.0000   1.0000   1.0000   1.0000
     1.0000   1.0000   0.0000   0.0000   0.0000   0.0000   0.0000

          k = 0.1667 0.2887 0.1550 (  2415 PWs)   bands (ev):

  -117.8292-117.8292 -72.0206 -72.0202 -72.0173 -72.0173 -72.0171 -72.0170
   -10.7606 -10.5572   0.5304   0.6108   0.6964   0.7505   0.8645   0.9005
     1.1607   1.2106   1.2836   1.3600   2.5896   3.3160   3.8781   4.3083
     4.9108   5.0469   9.0510  11.1255  13.3614  14.1842  15.7592

     occupation numbers 
     1.0000   1.0000   1.0000   1.0000   1.0000   1.0000   1.0000   1.0000
     1.0000   1.0000   1.0000   1.0000   1.0000   1.0000   1.0000   1.0000
     1.0000   1.0000   1.0000   1.0000   1.0000   1.0000   1.0000   1.0000
     1.0000   1.0000   0.0000   0.0000   0.0000   0.0000   0.0000

          k = 0.1667 0.2887 0.2325 (  2410 PWs)   bands (ev):

  -117.8292-117.8292 -72.0205 -72.0202 -72.0173 -72.0173 -72.0171 -72.0170
   -10.7137 -10.6035   0.5170   0.5779   0.7042   0.7374   0.8098   0.8287
     1.2094   1.2273   1.2682   1.3131   2.8043   3.1691   4.2150   4.4224
     4.7686   4.8840   9.4490  10.5653  13.5820  14.1052  15.7549

     occupation numbers 
     1.0000   1.0000   1.0000   1.0000   1.0000   1.0000   1.0000   1.0000
     1.0000   1.0000   1.0000   1.0000   1.0000   1.0000   1.0000   1.0000
     1.0000   1.0000   1.0000   1.0000   1.0000   1.0000   1.0000   1.0000
     1.0000   1.0000   0.0000   0.0000   0.0000   0.0000   0.0000

          k = 0.1667 0.2887-0.3100 (  2422 PWs)   bands (ev):

  -117.8292-117.8292 -72.0204 -72.0204 -72.0173 -72.0173 -72.0171 -72.0171
   -10.6585 -10.6585   0.5330   0.5330   0.7219   0.7219   0.7987   0.7987
     1.2418   1.2418   1.2684   1.2684   2.9959   2.9960   4.5205   4.5205
     4.6548   4.6548   9.9762   9.9762  13.8729  13.8729  15.6785

     occupation numbers 
     1.0000   1.0000   1.0000   1.0000   1.0000   1.0000   1.0000   1.0000
     1.0000   1.0000   1.0000   1.0000   1.0000   1.0000   1.0000   1.0000
     1.0000   1.0000   1.0000   1.0000   1.0000   1.0000   1.0000   1.0000
     1.0000   1.0000   0.0000   0.0000   0.0000   0.0000   0.0000

          k = 0.1667 0.3849 0.0000 (  2396 PWs)   bands (ev):

  -117.8292-117.8292 -72.0205 -72.0201 -72.0174 -72.0173 -72.0172 -72.0171
   -10.7092 -10.4944   0.5856   0.6584   0.7588   0.8498   0.9880   1.0815
     1.1301   1.2021   1.3092   1.4645   2.3899   2.9946   3.4165   3.8456
     4.8211   4.8774   9.5972  12.0922  13.3015  13.5411  15.2138

     occupation numbers 
     1.0000   1.0000   1.0000   1.0000   1.0000   1.0000   1.0000   1.0000
     1.0000   1.0000   1.0000   1.0000   1.0000   1.0000   1.0000   1.0000
     1.0000   1.0000   1.0000   1.0000   1.0000   1.0000   1.0000   1.0000
     1.0000   1.0000   0.0000   0.0000   0.0000   0.0000   0.0000

          k = 0.1667 0.3849 0.0775 (  2400 PWs)   bands (ev):

  -117.8292-117.8292 -72.0205 -72.0201 -72.0174 -72.0173 -72.0172 -72.0171
   -10.7007 -10.5021   0.5830   0.6509   0.7528   0.8439   0.9749   1.0394
     1.1272   1.2207   1.3060   1.4426   2.4156   2.9891   3.5197   3.8684
     4.7807   4.9002   9.6440  11.9728  13.2187  13.5772  15.2933

     occupation numbers 
     1.0000   1.0000   1.0000   1.0000   1.0000   1.0000   1.0000   1.0000
     1.0000   1.0000   1.0000   1.0000   1.0000   1.0000   1.0000   1.0000
     1.0000   1.0000   1.0000   1.0000   1.0000   1.0000   1.0000   1.0000
     1.0000   1.0000   0.0000   0.0000   0.0000   0.0000   0.0000

          k = 0.1667 0.3849 0.1550 (  2405 PWs)   bands (ev):

  -117.8292-117.8292 -72.0205 -72.0202 -72.0174 -72.0173 -72.0172 -72.0171
   -10.6766 -10.5245   0.5690   0.6328   0.7486   0.8306   0.9293   0.9388
     1.1682   1.2387   1.2988   1.3985   2.4831   2.9295   3.8003   3.9657
     4.6655   4.9161   9.8023  11.6049  13.1810  13.6092  15.2822

     occupation numbers 
     1.0000   1.0000   1.0000   1.0000   1.0000   1.0000   1.0000   1.0000
     1.0000   1.0000   1.0000   1.0000   1.0000   1.0000   1.0000   1.0000
     1.0000   1.0000   1.0000   1.0000   1.0000   1.0000   1.0000   1.0000
     1.0000   1.0000   0.0000   0.0000   0.0000   0.0000   0.0000

          k = 0.1667 0.3849 0.2325 (  2406 PWs)   bands (ev):

  -117.8292-117.8292 -72.0204 -72.0203 -72.0174 -72.0173 -72.0172 -72.0171
   -10.6408 -10.5585   0.5529   0.5991   0.7626   0.8222   0.8479   0.8892
     1.2182   1.2493   1.2940   1.3513   2.5796   2.8195   4.0623   4.2233
     4.5061   4.8300  10.1034  11.0820  13.2833  13.5769  15.1858

     occupation numbers 
     1.0000   1.0000   1.0000   1.0000   1.0000   1.0000   1.0000   1.0000
     1.0000   1.0000   1.0000   1.0000   1.0000   1.0000   1.0000   1.0000
     1.0000   1.0000   1.0000   1.0000   1.0000   1.0000   1.0000   1.0000
     1.0000   1.0000   0.0000   0.0000   0.0000   0.0000   0.0000

          k = 0.1667 0.3849-0.3100 (  2402 PWs)   bands (ev):

  -117.8292-117.8292 -72.0203 -72.0203 -72.0173 -72.0173 -72.0171 -72.0171
   -10.5993 -10.5993   0.5619   0.5619   0.7946   0.7946   0.8465   0.8465
     1.2492   1.2492   1.3090   1.3090   2.6956   2.6956   4.2596   4.2596
     4.6061   4.6061  10.5476  10.5476  13.4492  13.4492  15.2373

     occupation numbers 
     1.0000   1.0000   1.0000   1.0000   1.0000   1.0000   1.0000   1.0000
[...]
     4.5580   4.6351  10.4476  12.2867  13.2146  13.3118  15.4231

     occupation numbers 
     1.0000   1.0000   1.0000   1.0000   1.0000   1.0000   1.0000   1.0000
     1.0000   1.0000   1.0000   1.0000   1.0000   1.0000   1.0000   1.0000
     1.0000   1.0000   1.0000   1.0000   1.0000   1.0000   1.0000   1.0000
     1.0000   1.0000   0.0000   0.0000   0.0000   0.0000   0.0000

          k = 0.2500 0.4330 0.0775 (  2399 PWs)   bands (ev):

  -117.8292-117.8292 -72.0205 -72.0202 -72.0174 -72.0173 -72.0173 -72.0171
   -10.6243 -10.4935   0.5954   0.7145   0.8689   0.8755   1.0338   1.0733
     1.1287   1.2247   1.3272   1.4670   2.3780   2.7318   3.3999   3.6622
     4.5097   4.6823  10.4788  12.2335  13.1462  13.3193  15.1622

     occupation numbers 
     1.0000   1.0000   1.0000   1.0000   1.0000   1.0000   1.0000   1.0000
     1.0000   1.0000   1.0000   1.0000   1.0000   1.0000   1.0000   1.0000
     1.0000   1.0000   1.0000   1.0000   1.0000   1.0000   1.0000   1.0000
     1.0000   1.0000   0.0000   0.0000   0.0000   0.0000   0.0000

          k = 0.2500 0.4330 0.1550 (  2400 PWs)   bands (ev):

  -117.8292-117.8292 -72.0205 -72.0202 -72.0174 -72.0173 -72.0172 -72.0171
   -10.6077 -10.5075   0.6140   0.6695   0.8320   0.8615   0.9839   0.9885
     1.1762   1.2455   1.3317   1.4433   2.3769   2.6725   3.4954   3.9643
     4.3798   4.7653  10.5892  12.0131  13.0683  13.3322  14.8206

     occupation numbers 
     1.0000   1.0000   1.0000   1.0000   1.0000   1.0000   1.0000   1.0000
     1.0000   1.0000   1.0000   1.0000   1.0000   1.0000   1.0000   1.0000
     1.0000   1.0000   1.0000   1.0000   1.0000   1.0000   1.0000   1.0000
     1.0000   1.0000   0.0000   0.0000   0.0000   0.0000   0.0000

          k = 0.2500 0.4330 0.2325 (  2400 PWs)   bands (ev):

  -117.8292-117.8292 -72.0204 -72.0203 -72.0174 -72.0174 -72.0172 -72.0172
   -10.5835 -10.5292   0.6246   0.6290   0.7991   0.8504   0.9279   0.9352
     1.2177   1.2503   1.3472   1.4104   2.4154   2.5812   3.6754   4.1165
     4.3758   4.7729  10.8148  11.6120  13.1170  13.3179  14.5798

     occupation numbers 
     1.0000   1.0000   1.0000   1.0000   1.0000   1.0000   1.0000   1.0000
     1.0000   1.0000   1.0000   1.0000   1.0000   1.0000   1.0000   1.0000
     1.0000   1.0000   1.0000   1.0000   1.0000   1.0000   1.0000   1.0000
     1.0000   1.0000   0.0000   0.0000   0.0000   0.0000   0.0000

          k = 0.2500 0.4330-0.3100 (  2416 PWs)   bands (ev):

  -117.8292-117.8292 -72.0204 -72.0204 -72.0174 -72.0174 -72.0172 -72.0172
   -10.5559 -10.5559   0.6174   0.6174   0.8181   0.8181   0.9121   0.9121
     1.2419   1.2419   1.3755   1.3755   2.4883   2.4883   3.9028   3.9028
     4.6350   4.6350  11.1713  11.1713  13.2356  13.2356  14.5113

     occupation numbers 
     1.0000   1.0000   1.0000   1.0000   1.0000   1.0000   1.0000   1.0000
     1.0000   1.0000   1.0000   1.0000   1.0000   1.0000   1.0000   1.0000
     1.0000   1.0000   1.0000   1.0000   1.0000   1.0000   1.0000   1.0000
     1.0000   1.0000   0.0000   0.0000   0.0000   0.0000   0.0000

          k = 0.2500 0.5292 0.0000 (  2400 PWs)   bands (ev):

  -117.8292-117.8292 -72.0204 -72.0203 -72.0174 -72.0173 -72.0173 -72.0172
   -10.5707 -10.4990   0.5761   0.7778   0.8961   1.0478   1.0854   1.1130
     1.1650   1.2010   1.3518   1.4294   2.3596   2.6219   2.9950   3.8091
     4.3391   4.4281  11.1947  12.2178  13.0527  13.1048  15.1771

     occupation numbers 
     1.0000   1.0000   1.0000   1.0000   1.0000   1.0000   1.0000   1.0000
     1.0000   1.0000   1.0000   1.0000   1.0000   1.0000   1.0000   1.0000
     1.0000   1.0000   1.0000   1.0000   1.0000   1.0000   1.0000   1.0000
     1.0000   1.0000   0.0000   0.0000   0.0000   0.0000   0.0000

          k = 0.2500 0.5292 0.0775 (  2397 PWs)   bands (ev):

  -117.8292-117.8292 -72.0204 -72.0203 -72.0174 -72.0174 -72.0173 -72.0172
   -10.5674 -10.5011   0.5866   0.7625   0.8688   1.0246   1.0638   1.0952
     1.1708   1.2138   1.3601   1.4369   2.3389   2.5915   3.0375   3.9188
     4.3191   4.4643  11.2150  12.2151  13.0280  13.1094  14.8362

     occupation numbers 
     1.0000   1.0000   1.0000   1.0000   1.0000   1.0000   1.0000   1.0000
     1.0000   1.0000   1.0000   1.0000   1.0000   1.0000   1.0000   1.0000
     1.0000   1.0000   1.0000   1.0000   1.0000   1.0000   1.0000   1.0000
     1.0000   1.0000   0.0000   0.0000   0.0000   0.0000   0.0000

          k = 0.2500 0.5292 0.1550 (  2394 PWs)   bands (ev):

  -117.8292-117.8292 -72.0204 -72.0203 -72.0174 -72.0173 -72.0173 -72.0172
   -10.5582 -10.5074   0.6142   0.7271   0.8004   0.9740   1.0241   1.0567
     1.1897   1.2229   1.3835   1.4488   2.3075   2.5107   3.1799   4.1257
     4.2296   4.5997  11.2903  12.1747  12.9740  13.1071  14.3086

     occupation numbers 
     1.0000   1.0000   1.0000   1.0000   1.0000   1.0000   1.0000   1.0000
     1.0000   1.0000   1.0000   1.0000   1.0000   1.0000   1.0000   1.0000
     1.0000   1.0000   1.0000   1.0000   1.0000   1.0000   1.0000   1.0000
     1.0000   1.0000   0.0000   0.0000   0.0000   0.0000   0.0000

          k = 0.2500 0.5292 0.2325 (  2393 PWs)   bands (ev):

  -117.8292-117.8292 -72.0204 -72.0203 -72.0174 -72.0173 -72.0173 -72.0172
   -10.5450 -10.5175   0.6387   0.6914   0.7563   0.8897   1.0098   1.0285
     1.2046   1.2221   1.4127   1.4502   2.3063   2.4182   3.4054   3.9355
     4.4743   4.6979  11.4535  12.0060  12.9514  13.0748  14.0040

     occupation numbers 
     1.0000   1.0000   1.0000   1.0000   1.0000   1.0000   1.0000   1.0000
     1.0000   1.0000   1.0000   1.0000   1.0000   1.0000   1.0000   1.0000
     1.0000   1.0000   1.0000   1.0000   1.0000   1.0000   1.0000   1.0000
     1.0000   1.0000   0.0000   0.0000   0.0000   0.0000   0.0000

          k = 0.2500 0.5292-0.3100 (  2382 PWs)   bands (ev):

  -117.8292-117.8292 -72.0203 -72.0203 -72.0173 -72.0173 -72.0172 -72.0172
   -10.5307 -10.5307   0.6541   0.6541   0.8048   0.8048   1.0129   1.0129
     1.2153   1.2153   1.4372   1.4372   2.3452   2.3452   3.6713   3.6713
     4.6614   4.6614  11.7169  11.7169  13.0057  13.0057  14.0138

     occupation numbers 
     1.0000   1.0000   1.0000   1.0000   1.0000   1.0000   1.0000   1.0000
     1.0000   1.0000   1.0000   1.0000   1.0000   1.0000   1.0000   1.0000
     1.0000   1.0000   1.0000   1.0000   1.0000   1.0000   1.0000   1.0000
     1.0000   1.0000   0.0000   0.0000   0.0000   0.0000   0.0000

          k = 0.3333 0.5774 0.0000 (  2406 PWs)   bands (ev):

  -117.8292-117.8292 -72.0204 -72.0204 -72.0173 -72.0173 -72.0173 -72.0173
   -10.5260 -10.5260   0.5720   0.8471   0.8471   1.0855   1.1332   1.1332
     1.1824   1.2042   1.3838   1.3838   2.5285   2.5285   2.7024   4.1046
     4.1046   4.2676  11.8428  11.8428  13.0988  13.1282  15.1738

     occupation numbers 
     1.0000   1.0000   1.0000   1.0000   1.0000   1.0000   1.0000   1.0000
     1.0000   1.0000   1.0000   1.0000   1.0000   1.0000   1.0000   1.0000
     1.0000   1.0000   1.0000   1.0000   1.0000   1.0000   1.0000   1.0000
     1.0000   1.0000   0.0000   0.0000   0.0000   0.0000   0.0000

          k = 0.3333 0.5774 0.0775 (  2406 PWs)   bands (ev):

  -117.8292-117.8292 -72.0204 -72.0204 -72.0174 -72.0174 -72.0173 -72.0173
   -10.5253 -10.5253   0.5853   0.8253   0.8253   1.0607   1.1189   1.1189
     1.1734   1.2023   1.4005   1.4005   2.4917   2.4917   2.7715   4.1956
     4.1957   4.2086  11.8664  11.8664  13.1037  13.1294  14.8228

     occupation numbers 
     1.0000   1.0000   1.0000   1.0000   1.0000   1.0000   1.0000   1.0000
     1.0000   1.0000   1.0000   1.0000   1.0000   1.0000   1.0000   1.0000
     1.0000   1.0000   1.0000   1.0000   1.0000   1.0000   1.0000   1.0000
     1.0000   1.0000   0.0000   0.0000   0.0000   0.0000   0.0000

          k = 0.3333 0.5774 0.1550 (  2376 PWs)   bands (ev):

  -117.8292-117.8292 -72.0203 -72.0203 -72.0173 -72.0173 -72.0173 -72.0172
   -10.5238 -10.5238   0.6248   0.7713   0.7713   0.9838   1.0943   1.0943
     1.1673   1.1968   1.4328   1.4328   2.4180   2.4180   2.9577   4.0427
     4.4022   4.4022  11.9379  11.9379  13.1152  13.1322  14.1800

     occupation numbers 
     1.0000   1.0000   1.0000   1.0000   1.0000   1.0000   1.0000   1.0000
     1.0000   1.0000   1.0000   1.0000   1.0000   1.0000   1.0000   1.0000
     1.0000   1.0000   1.0000   1.0000   1.0000   1.0000   1.0000   1.0000
     1.0000   1.0000   0.0000   0.0000   0.0000   0.0000   0.0000

          k = 0.3333 0.5774 0.2325 (  2388 PWs)   bands (ev):

  -117.8292-117.8292 -72.0203 -72.0203 -72.0173 -72.0173 -72.0173 -72.0172
   -10.5222 -10.5222   0.6895   0.7171   0.7171   0.8797   1.0775   1.0775
     1.1711   1.1887   1.4583   1.4583   2.3594   2.3594   3.2178   3.7979
     4.5966   4.5966  12.0447  12.0447  13.1265  13.1344  13.6319

     occupation numbers 
     1.0000   1.0000   1.0000   1.0000   1.0000   1.0000   1.0000   1.0000
     1.0000   1.0000   1.0000   1.0000   1.0000   1.0000   1.0000   1.0000
     1.0000   1.0000   1.0000   1.0000   1.0000   1.0000   1.0000   1.0000
     1.0000   1.0000   0.0000   0.0000   0.0000   0.0000   0.0000

          k = 0.3333 0.5774-0.3100 (  2388 PWs)   bands (ev):

  -117.8292-117.8292 -72.0203 -72.0203 -72.0173 -72.0173 -72.0173 -72.0173
   -10.5216 -10.5216   0.6948   0.6948   0.7767   0.7767   1.0718   1.0718
     1.1794   1.1794   1.4676   1.4676   2.3383   2.3383   3.5104   3.5104
     4.6748   4.6748  12.1097  12.1097  13.1331  13.1331  13.4044

     occupation numbers 
     1.0000   1.0000   1.0000   1.0000   1.0000   1.0000   1.0000   1.0000
     1.0000   1.0000   1.0000   1.0000   1.0000   1.0000   1.0000   1.0000
     1.0000   1.0000   1.0000   1.0000   1.0000   1.0000   1.0000   1.0000
     1.0000   1.0000   0.0000   0.0000   0.0000   0.0000   0.0000

     the Fermi energy is     6.0352 ev

     WARNING: integrated charge=    52.00148008, expected=    52.00000000

!    total energy              =   -1006.52630241 Ry
     estimated scf accuracy    <          3.0E-09 Ry
     smearing contrib. (-TS)   =       0.00001103 Ry
     internal energy E=F+TS    =   -1006.52631344 Ry

     The total energy is F=E-TS. E is the sum of the following terms:
     one-electron contribution =    -868.16467702 Ry
     hartree contribution      =     450.31931106 Ry
     xc contribution           =     -99.10680093 Ry
     ewald contribution        =    -470.52825046 Ry
     one-center paw contrib.   =     -19.04589608 Ry
      -> PAW hartree energy AE =      50.41962390 Ry
      -> PAW hartree energy PS =     -50.18676107 Ry
      -> PAW xc energy AE      =     -33.04308983 Ry
      -> PAW xc energy PS      =      13.76433093 Ry
      -> total E_H with PAW    =     450.55217388 Ry
      -> total E_XC with PAW   =    -118.38555984 Ry

     convergence has been achieved in   9 iterations

     Forces acting on atoms (cartesian axes, Ry/au):

     atom    1 type  2   force =     0.00000000    0.00000000   -0.00010460
     atom    2 type  2   force =     0.00000000   -0.00000000   -0.00010460
     atom    3 type  1   force =    -0.00000000   -0.00000000    0.00010460
     atom    4 type  1   force =    -0.00000000   -0.00000000    0.00010460
     The non-local contrib.  to forces
     atom    1 type  2   force =     0.00000000    0.00000000   -0.01105238
     atom    2 type  2   force =     0.00000000   -0.00000000   -0.01105238
     atom    3 type  1   force =     0.00000000   -0.00000000    0.00510172
     atom    4 type  1   force =     0.00000000    0.00000000    0.00510172
     The ionic contribution  to forces
     atom    1 type  2   force =    -0.00000053    0.00000031    0.07183486
     atom    2 type  2   force =     0.00000053   -0.00000031    0.07183486
     atom    3 type  1   force =    -0.00000046    0.00000026   -0.07183486
     atom    4 type  1   force =     0.00000046   -0.00000026   -0.07183486
     The local contribution  to forces
     atom    1 type  2   force =    -0.00001054    0.00000608   -0.06086324
     atom    2 type  2   force =     0.00003161   -0.00001825   -0.06086384
     atom    3 type  1   force =    -0.00000063    0.00000036    0.06691803
     atom    4 type  1   force =     0.00000189   -0.00000109    0.06691895
     The core correction contribution to forces
     atom    1 type  2   force =     0.00000000    0.00000000    0.00000000
     atom    2 type  2   force =     0.00000000    0.00000000    0.00000000
     atom    3 type  1   force =    -0.00000000    0.00000000   -0.00007101
     atom    4 type  1   force =     0.00000000   -0.00000000   -0.00007101
     The Hubbard contrib.    to forces
     atom    1 type  2   force =     0.00000000    0.00000000    0.00000000
     atom    2 type  2   force =     0.00000000    0.00000000    0.00000000
     atom    3 type  1   force =     0.00000000    0.00000000    0.00000000
     atom    4 type  1   force =     0.00000000    0.00000000    0.00000000
     The SCF correction term to forces
     atom    1 type  2   force =    -0.00000000    0.00000000   -0.00003577
     atom    2 type  2   force =     0.00000000   -0.00000000   -0.00003577
     atom    3 type  1   force =    -0.00000000    0.00000000   -0.00002196
     atom    4 type  1   force =     0.00000000   -0.00000000   -0.00002196

     Total force =     0.000209     Total SCF correction =     0.000059
     SCF correction compared to forces is large: reduce conv_thr to get better values


     Computing stress (Cartesian axis) and pressure

          total   stress  (Ry/bohr**3)                   (kbar)     P=     -163.42
  -0.00111679   0.00000000   0.00000000         -164.29        0.00        0.00
   0.00000000  -0.00111679   0.00000000            0.00     -164.29        0.00
   0.00000000   0.00000000  -0.00109908            0.00        0.00     -161.68

     kinetic stress (kbar)  27570.60      0.00      0.00
                                0.00  27570.60      0.00
                                0.00      0.00  27591.04

     local   stress (kbar) -12054.99     -0.00     -0.00
                               -0.00 -12055.00      0.00
                               -0.00      0.00 -15148.73

     nonloc. stress (kbar)   -641.62     -0.00      0.00
                               -0.00   -641.62      0.00
                                0.00      0.00   -649.47

     hartree stress (kbar)  54308.31     -0.00     -0.00
                               -0.00  54308.31     -0.00
                               -0.00     -0.00  55793.37

     exc-cor stress (kbar) -11241.42      0.00     -0.00
                                0.00 -11241.42      0.00
                               -0.00      0.00 -11241.56

     corecor stress (kbar)   -309.47     -0.00      0.00
                               -0.00   -309.47     -0.00
                                0.00     -0.00   -309.51

     ewald   stress (kbar) -57795.69      0.00      0.00
                                0.00 -57795.69     -0.00
                                0.00     -0.00 -56196.82

     hubbard stress (kbar)      0.00      0.00      0.00
                                0.00      0.00      0.00
                                0.00      0.00      0.00

     DFT-D   stress (kbar)      0.00      0.00      0.00
                                0.00      0.00      0.00
                                0.00      0.00      0.00

     XDM     stress (kbar)      0.00      0.00      0.00
                                0.00      0.00      0.00
                                0.00      0.00      0.00

     dft-nl  stress (kbar)      0.00      0.00      0.00
                                0.00      0.00      0.00
                                0.00      0.00      0.00

     TS-vdW  stress (kbar)      0.00      0.00      0.00
                                0.00      0.00      0.00
                                0.00      0.00      0.00

     MDB     stress (kbar)      0.00      0.00      0.00
                                0.00      0.00      0.00
                                0.00      0.00      0.00

     3D-RISM stress (kbar)      0.00      0.00      0.00
                                0.00      0.00      0.00
                                0.00      0.00      0.00


     Writing all to output data dir ./temp_hexag/aiida.save/ :
     XML data file, charge density, pseudopotentials, collected wavefunctions

     init_run     :    189.77s CPU      9.06s WALL (       1 calls)
     electrons    :   4308.23s CPU    208.52s WALL (       1 calls)
     forces       :    102.49s CPU      4.52s WALL (       1 calls)
     stress       :     55.64s CPU      3.13s WALL (       1 calls)

     Called by init_run:
     wfcinit      :    185.29s CPU      8.57s WALL (       1 calls)
     wfcinit:atom :      1.46s CPU      0.11s WALL (      95 calls)
     wfcinit:wfcr :    180.94s CPU      8.05s WALL (      95 calls)
     potinit      :      1.39s CPU      0.09s WALL (       1 calls)
     hinit0       :      1.37s CPU      0.23s WALL (       1 calls)

     Called by electrons:
     c_bands      :   3711.03s CPU    181.41s WALL (       9 calls)
     sum_band     :    573.34s CPU     25.19s WALL (       9 calls)
     v_of_rho     :      5.82s CPU      0.28s WALL (      10 calls)
     v_h          :      0.66s CPU      0.04s WALL (      10 calls)
     v_xc         :      5.80s CPU      0.27s WALL (      12 calls)
     newd         :     11.11s CPU      1.29s WALL (      10 calls)
     PAW_pot      :      7.41s CPU      0.31s WALL (      10 calls)
     mix_rho      :      0.95s CPU      0.06s WALL (       9 calls)

     Called by c_bands:
     init_us_2    :     27.79s CPU      1.65s WALL (    1995 calls)
     cegterg      :   3644.65s CPU    178.06s WALL (     855 calls)

     Called by sum_band:
     sum_band:wei :      0.05s CPU      0.02s WALL (       9 calls)
     sum_band:loo :    568.67s CPU     23.82s WALL (       9 calls)
     sum_band:buf :      2.14s CPU      0.11s WALL (     855 calls)
     sum_band:ini :     11.30s CPU      0.52s WALL (     855 calls)
     sum_band:cal :    118.42s CPU      4.62s WALL (     855 calls)
     sum_band:bec :     19.06s CPU      0.91s WALL (     855 calls)
     addusdens    :      4.10s CPU      1.25s WALL (       9 calls)
                                        0.00s GPU  (       9 calls)
     addusd:skk   :      0.00s CPU      0.00s WALL (      18 calls)
                                        0.00s GPU  (      18 calls)

     Called by *egterg:
     cdiaghg      :     30.95s CPU      2.45s WALL (    3153 calls)
     cegterg:over :    241.81s CPU     11.89s WALL (    2298 calls)
     cegterg:upda :    111.05s CPU      8.90s WALL (    2298 calls)
     cegterg:last :    112.30s CPU     15.12s WALL (    1710 calls)
     h_psi        :   2899.94s CPU    125.49s WALL (    3248 calls)
     s_psi        :    239.89s CPU     12.26s WALL (    3248 calls)
     g_psi        :     15.04s CPU      0.93s WALL (    2298 calls)

     Called by h_psi:
     h_psi:calbec :    297.80s CPU     11.65s WALL (    3248 calls)
     vloc_psi     :   2281.29s CPU    100.14s WALL (    3248 calls)
     add_vuspsi   :    284.01s CPU     12.09s WALL (    3248 calls)

     General routines
     calbec       :    482.89s CPU     19.01s WALL (    4578 calls)
     fft          :      5.21s CPU      0.28s WALL (     153 calls)
     ffts         :      0.06s CPU      0.01s WALL (      19 calls)
     fftw         :   1035.39s CPU     46.92s WALL (  156947 calls)
     interpolate  :      0.53s CPU      0.02s WALL (      10 calls)

     Parallel routines

     PAW routines
     PAW_pot      :      7.41s CPU      0.31s WALL (      10 calls)
     PAW_symme    :      0.00s CPU      0.00s WALL (      19 calls)

     PWSCF        :      1h18m CPU   3m48.06s WALL


   This run was terminated on:  23:44:18  11Jun2024            

=------------------------------------------------------------------------------=
   JOB DONE.
=------------------------------------------------------------------------------=
