
     Program PWSCF v.7.3.1 starts on 12Jun2024 at  0: 1:53 

     This program is part of the open-source Quantum ESPRESSO suite
     for quantum simulation of materials; please cite
         "P. Giannozzi et al., J. Phys.:Condens. Matter 21 395502 (2009);
         "P. Giannozzi et al., J. Phys.:Condens. Matter 29 465901 (2017);
         "P. Giannozzi et al., J. Chem. Phys. 152 154105 (2020);
          URL http://www.quantum-espresso.org", 
     in publications or presentations arising from this work. More details at
     http://www.quantum-espresso.org/quote

     Parallel version (MPI & OpenMP), running on      24 processor cores
     Number of MPI processes:                 1
     Threads/MPI process:                    24

     MPI processes distributed on     1 nodes
     4765 MiB available memory on the printing compute node when the environment starts

     Waiting for input...
     Reading input from standard input

     Current dimensions of program PWSCF are:
     Max number of different atomic species (ntypx) = 10
     Max number of k-points (npk) =  40000
     Max angular momentum in pseudopotentials (lmaxx) =  4
     file O.pbe-n-kjpaw_psl.0.1.UPF: wavefunction(s)  2P renormalized
     Message from routine setup:
     using ibrav=0 with symmetry is DISCOURAGED, use correct ibrav instead

     Subspace diagonalization in iterative solution of the eigenvalue problem:
     a serial algorithm will be used


     G-vector sticks info
     --------------------
     sticks:   dense  smooth     PW     G-vecs:    dense   smooth      PW
     Sum        1003     499    151                40615    14449    2479

     Using Slab Decomposition



     bravais-lattice index     =            0
     lattice parameter (alat)  =       5.9954  a.u.
     unit-cell volume          =     301.0419 (a.u.)^3
     number of atoms/cell      =            4
     number of atomic types    =            2
     number of electrons       =        52.00
     number of Kohn-Sham states=           31
     kinetic-energy cutoff     =      50.0000  Ry
     charge density cutoff     =     400.0000  Ry
     scf convergence threshold =      2.0E-08
     mixing beta               =       0.4000
     number of iterations used =            8  plain     mixing
     Exchange-correlation= SLA  PW   PBE  PBE
                           (   1   4   3   4   0   0   0)

     celldm(1)=   5.995353  celldm(2)=   0.000000  celldm(3)=   0.000000
     celldm(4)=   0.000000  celldm(5)=   0.000000  celldm(6)=   0.000000

     crystal axes: (cart. coord. in units of alat)
               a(1) = (   1.000000   0.000000   0.000000 )  
               a(2) = (  -0.500000   0.866025   0.000000 )  
               a(3) = (   0.000000   0.000000   1.613066 )  

     reciprocal axes: (cart. coord. in units 2 pi/alat)
               b(1) = (  1.000000  0.577350 -0.000000 )  
               b(2) = (  0.000000  1.154701  0.000000 )  
               b(3) = (  0.000000 -0.000000  0.619937 )  


     PseudoPot. # 1 for O  read from file:
     ../SSSP_1.3.0_PBE_efficiency/O.pbe-n-kjpaw_psl.0.1.UPF
     MD5 check sum: 0234752ac141de4415c5fc33072bef88
     Pseudo is Projector augmented-wave + core cor, Zval =  6.0
     Generated using "atomic" code by A. Dal Corso  v.5.0.99 svn rev. 10869
     Shape of augmentation charge: BESSEL
     Using radial grid of 1095 points,  4 beta functions with: 
                l(1) =   0
                l(2) =   0
                l(3) =   1
                l(4) =   1
     Q(r) pseudized with 0 coefficients 


     PseudoPot. # 2 for Zn read from file:
     ../SSSP_1.3.0_PBE_efficiency/Zn_pbe_v1.uspp.F.UPF
     MD5 check sum: df62231357ef9e81f77b2b3087fa5675
     Pseudo is Ultrasoft, Zval = 20.0
     Generated by new atomic code, or converted to UPF format
     Using radial grid of  943 points,  6 beta functions with: 
                l(1) =   0
                l(2) =   0
                l(3) =   1
                l(4) =   1
                l(5) =   2
                l(6) =   2
     Q(r) pseudized with  8 coefficients,  rinner =    1.100   1.100   1.100
                                                       1.100   1.100

     atomic species   valence    mass     pseudopotential
     O                 6.00    15.99940     O ( 1.00)
     Zn               20.00    65.38000     Zn( 1.00)

     12 Sym. Ops. (no inversion) found ( 6 have fractional translation)


                                    s                        frac. trans.

      isym =  1     identity                                     

 cryst.   s( 1) = (     1          0          0      )
                  (     0          1          0      )
                  (     0          0          1      )

 cart.    s( 1) = (  1.0000000  0.0000000  0.0000000 )
                  (  0.0000000  1.0000000  0.0000000 )
                  (  0.0000000  0.0000000  1.0000000 )


      isym =  2     180 deg rotation - cart. axis [0,0,1]        

 cryst.   s( 2) = (    -1          0          0      )    f =(  0.0000000 )
                  (     0         -1          0      )       (  0.0000000 )
                  (     0          0          1      )       (  0.5000000 )

 cart.    s( 2) = ( -1.0000000  0.0000000  0.0000000 )    f =(  0.0000000 )
                  (  0.0000000 -1.0000000  0.0000000 )       (  0.0000000 )
                  (  0.0000000  0.0000000  1.0000000 )       (  0.8065331 )


      isym =  3      60 deg rotation - cryst. axis [0,0,1]       

 cryst.   s( 3) = (     1          1          0      )    f =( -0.0000000 )
                  (    -1          0          0      )       (  0.0000000 )
                  (     0          0          1      )       (  0.5000000 )

 cart.    s( 3) = (  0.5000000 -0.8660254  0.0000000 )    f =( -0.0000000 )
                  (  0.8660254  0.5000000  0.0000000 )       (  0.0000000 )
                  (  0.0000000  0.0000000  1.0000000 )       (  0.8065331 )


      isym =  4      60 deg rotation - cryst. axis [0,0,-1]      

 cryst.   s( 4) = (     0         -1          0      )    f =(  0.0000000 )
                  (     1          1          0      )       (  0.0000000 )
                  (     0          0          1      )       (  0.5000000 )

 cart.    s( 4) = (  0.5000000  0.8660254  0.0000000 )    f =( -0.0000000 )
                  ( -0.8660254  0.5000000  0.0000000 )       (  0.0000000 )
                  (  0.0000000  0.0000000  1.0000000 )       (  0.8065331 )


      isym =  5     120 deg rotation - cryst. axis [0,0,1]       

 cryst.   s( 5) = (     0          1          0      )
                  (    -1         -1          0      )
                  (     0          0          1      )

 cart.    s( 5) = ( -0.5000000 -0.8660254  0.0000000 )
                  (  0.8660254 -0.5000000  0.0000000 )
                  (  0.0000000  0.0000000  1.0000000 )


      isym =  6     120 deg rotation - cryst. axis [0,0,-1]      

 cryst.   s( 6) = (    -1         -1          0      )
                  (     1          0          0      )
                  (     0          0          1      )

 cart.    s( 6) = ( -0.5000000  0.8660254  0.0000000 )
                  ( -0.8660254 -0.5000000  0.0000000 )
                  (  0.0000000  0.0000000  1.0000000 )


      isym =  7     inv. 180 deg rotation - cart. axis [0,1,0]   

 cryst.   s( 7) = (     1          0          0      )    f =( -0.0000000 )
                  (    -1         -1          0      )       (  0.0000000 )
                  (     0          0          1      )       (  0.5000000 )

 cart.    s( 7) = (  1.0000000  0.0000000  0.0000000 )    f =( -0.0000000 )
                  (  0.0000000 -1.0000000  0.0000000 )       (  0.0000000 )
                  (  0.0000000  0.0000000  1.0000000 )       (  0.8065331 )


      isym =  8     inv. 180 deg rotation - cart. axis [1,0,0]   

 cryst.   s( 8) = (    -1          0          0      )
                  (     1          1          0      )
                  (     0          0          1      )

 cart.    s( 8) = ( -1.0000000  0.0000000  0.0000000 )
                  (  0.0000000  1.0000000  0.0000000 )
                  (  0.0000000  0.0000000  1.0000000 )


      isym =  9     inv. 180 deg rotation - cryst. axis [1,-1,0] 

 cryst.   s( 9) = (     0          1          0      )    f =(  0.0000000 )
                  (     1          0          0      )       (  0.0000000 )
                  (     0          0          1      )       (  0.5000000 )

 cart.    s( 9) = ( -0.5000000  0.8660254  0.0000000 )    f =(  0.0000000 )
                  (  0.8660254  0.5000000  0.0000000 )       (  0.0000000 )
                  (  0.0000000  0.0000000  1.0000000 )       (  0.8065331 )


      isym = 10     inv. 180 deg rotation - cryst. axis [2,1,0]  

 cryst.   s(10) = (    -1         -1          0      )    f =(  0.0000000 )
                  (     0          1          0      )       (  0.0000000 )
                  (     0          0          1      )       (  0.5000000 )

 cart.    s(10) = ( -0.5000000 -0.8660254  0.0000000 )    f =( -0.0000000 )
                  ( -0.8660254  0.5000000  0.0000000 )       (  0.0000000 )
                  (  0.0000000  0.0000000  1.0000000 )       (  0.8065331 )


      isym = 11     inv. 180 deg rotation - cryst. axis [0,1,0]  

 cryst.   s(11) = (     1          1          0      )
                  (     0         -1          0      )
                  (     0          0          1      )

 cart.    s(11) = (  0.5000000  0.8660254  0.0000000 )
                  (  0.8660254 -0.5000000  0.0000000 )
                  (  0.0000000  0.0000000  1.0000000 )


      isym = 12     inv. 180 deg rotation - cryst. axis [1,1,0]  

 cryst.   s(12) = (     0         -1          0      )
                  (    -1          0          0      )
                  (     0          0          1      )

 cart.    s(12) = (  0.5000000 -0.8660254  0.0000000 )
                  ( -0.8660254 -0.5000000  0.0000000 )
                  (  0.0000000  0.0000000  1.0000000 )


   Cartesian axes

     site n.     atom                  positions (alat units)
         1        Zn     tau(   1) = (   0.5000000   0.2886751   0.8074875  )
         2        Zn     tau(   2) = (  -0.0000000   0.5773503   0.0009545  )
         3        O      tau(   3) = (   0.5000000   0.2886751   1.4190438  )
         4        O      tau(   4) = (  -0.0000000   0.5773503   0.6125107  )

   Crystallographic axes

     site n.     atom                  positions (cryst. coord.)
         1        Zn     tau(   1) = (  0.6666667  0.3333333  0.5005917  )
         2        Zn     tau(   2) = (  0.3333333  0.6666667  0.0005917  )
         3        O      tau(   3) = (  0.6666667  0.3333333  0.8797183  )
         4        O      tau(   4) = (  0.3333333  0.6666667  0.3797183  )

     number of k points=    95  Marzari-Vanderbilt smearing, width (Ry)=  0.0147
                       cart. coord. in units 2pi/alat
        k(    1) = (   0.0000000   0.0000000   0.0000000), wk =   0.0017361
        k(    2) = (   0.0000000   0.0000000   0.0774922), wk =   0.0034722
        k(    3) = (   0.0000000   0.0000000   0.1549843), wk =   0.0034722
        k(    4) = (   0.0000000   0.0000000   0.2324765), wk =   0.0034722
        k(    5) = (   0.0000000   0.0000000  -0.3099687), wk =   0.0017361
        k(    6) = (   0.0000000   0.0962250   0.0000000), wk =   0.0104167
        k(    7) = (   0.0000000   0.0962250   0.0774922), wk =   0.0208333
        k(    8) = (   0.0000000   0.0962250   0.1549843), wk =   0.0208333
        k(    9) = (   0.0000000   0.0962250   0.2324765), wk =   0.0208333
        k(   10) = (   0.0000000   0.0962250  -0.3099687), wk =   0.0104167
        k(   11) = (   0.0000000   0.1924501   0.0000000), wk =   0.0104167
        k(   12) = (   0.0000000   0.1924501   0.0774922), wk =   0.0208333
        k(   13) = (   0.0000000   0.1924501   0.1549843), wk =   0.0208333
        k(   14) = (   0.0000000   0.1924501   0.2324765), wk =   0.0208333
        k(   15) = (   0.0000000   0.1924501  -0.3099687), wk =   0.0104167
        k(   16) = (   0.0000000   0.2886751   0.0000000), wk =   0.0104167
        k(   17) = (   0.0000000   0.2886751   0.0774922), wk =   0.0208333
        k(   18) = (   0.0000000   0.2886751   0.1549843), wk =   0.0208333
        k(   19) = (   0.0000000   0.2886751   0.2324765), wk =   0.0208333
        k(   20) = (   0.0000000   0.2886751  -0.3099687), wk =   0.0104167
        k(   21) = (   0.0000000   0.3849002   0.0000000), wk =   0.0104167
        k(   22) = (   0.0000000   0.3849002   0.0774922), wk =   0.0208333
        k(   23) = (   0.0000000   0.3849002   0.1549843), wk =   0.0208333
        k(   24) = (   0.0000000   0.3849002   0.2324765), wk =   0.0208333
        k(   25) = (   0.0000000   0.3849002  -0.3099687), wk =   0.0104167
        k(   26) = (   0.0000000   0.4811252   0.0000000), wk =   0.0104167
        k(   27) = (   0.0000000   0.4811252   0.0774922), wk =   0.0208333
        k(   28) = (   0.0000000   0.4811252   0.1549843), wk =   0.0208333
        k(   29) = (   0.0000000   0.4811252   0.2324765), wk =   0.0208333
        k(   30) = (   0.0000000   0.4811252  -0.3099687), wk =   0.0104167
        k(   31) = (   0.0000000  -0.5773503   0.0000000), wk =   0.0052083
        k(   32) = (   0.0000000  -0.5773503   0.0774922), wk =   0.0104167
        k(   33) = (   0.0000000  -0.5773503   0.1549843), wk =   0.0104167
        k(   34) = (   0.0000000  -0.5773503   0.2324765), wk =   0.0104167
        k(   35) = (   0.0000000  -0.5773503  -0.3099687), wk =   0.0052083
        k(   36) = (   0.0833333   0.1443376   0.0000000), wk =   0.0104167
        k(   37) = (   0.0833333   0.1443376   0.0774922), wk =   0.0208333
        k(   38) = (   0.0833333   0.1443376   0.1549843), wk =   0.0208333
        k(   39) = (   0.0833333   0.1443376   0.2324765), wk =   0.0208333
        k(   40) = (   0.0833333   0.1443376  -0.3099687), wk =   0.0104167
        k(   41) = (   0.0833333   0.2405626   0.0000000), wk =   0.0208333
        k(   42) = (   0.0833333   0.2405626   0.0774922), wk =   0.0416667
        k(   43) = (   0.0833333   0.2405626   0.1549843), wk =   0.0416667
        k(   44) = (   0.0833333   0.2405626   0.2324765), wk =   0.0416667
        k(   45) = (   0.0833333   0.2405626  -0.3099687), wk =   0.0208333
        k(   46) = (   0.0833333   0.3367877   0.0000000), wk =   0.0208333
        k(   47) = (   0.0833333   0.3367877   0.0774922), wk =   0.0416667
        k(   48) = (   0.0833333   0.3367877   0.1549843), wk =   0.0416667
        k(   49) = (   0.0833333   0.3367877   0.2324765), wk =   0.0416667
        k(   50) = (   0.0833333   0.3367877  -0.3099687), wk =   0.0208333
        k(   51) = (   0.0833333   0.4330127   0.0000000), wk =   0.0208333
        k(   52) = (   0.0833333   0.4330127   0.0774922), wk =   0.0416667
        k(   53) = (   0.0833333   0.4330127   0.1549843), wk =   0.0416667
        k(   54) = (   0.0833333   0.4330127   0.2324765), wk =   0.0416667
        k(   55) = (   0.0833333   0.4330127  -0.3099687), wk =   0.0208333
        k(   56) = (   0.0833333   0.5292377   0.0000000), wk =   0.0208333
        k(   57) = (   0.0833333   0.5292377   0.0774922), wk =   0.0416667
        k(   58) = (   0.0833333   0.5292377   0.1549843), wk =   0.0416667
        k(   59) = (   0.0833333   0.5292377   0.2324765), wk =   0.0416667
        k(   60) = (   0.0833333   0.5292377  -0.3099687), wk =   0.0208333
        k(   61) = (   0.1666667   0.2886751   0.0000000), wk =   0.0104167
        k(   62) = (   0.1666667   0.2886751   0.0774922), wk =   0.0208333
        k(   63) = (   0.1666667   0.2886751   0.1549843), wk =   0.0208333
        k(   64) = (   0.1666667   0.2886751   0.2324765), wk =   0.0208333
        k(   65) = (   0.1666667   0.2886751  -0.3099687), wk =   0.0104167
        k(   66) = (   0.1666667   0.3849002   0.0000000), wk =   0.0208333
        k(   67) = (   0.1666667   0.3849002   0.0774922), wk =   0.0416667
        k(   68) = (   0.1666667   0.3849002   0.1549843), wk =   0.0416667
        k(   69) = (   0.1666667   0.3849002   0.2324765), wk =   0.0416667
        k(   70) = (   0.1666667   0.3849002  -0.3099687), wk =   0.0208333
        k(   71) = (   0.1666667   0.4811252   0.0000000), wk =   0.0208333
        k(   72) = (   0.1666667   0.4811252   0.0774922), wk =   0.0416667
        k(   73) = (   0.1666667   0.4811252   0.1549843), wk =   0.0416667
        k(   74) = (   0.1666667   0.4811252   0.2324765), wk =   0.0416667
        k(   75) = (   0.1666667   0.4811252  -0.3099687), wk =   0.0208333
        k(   76) = (   0.1666667   0.5773503   0.0000000), wk =   0.0104167
        k(   77) = (   0.1666667   0.5773503   0.0774922), wk =   0.0208333
        k(   78) = (   0.1666667   0.5773503   0.1549843), wk =   0.0208333
        k(   79) = (   0.1666667   0.5773503   0.2324765), wk =   0.0208333
        k(   80) = (   0.1666667   0.5773503  -0.3099687), wk =   0.0104167
        k(   81) = (   0.2500000   0.4330127   0.0000000), wk =   0.0104167
        k(   82) = (   0.2500000   0.4330127   0.0774922), wk =   0.0208333
        k(   83) = (   0.2500000   0.4330127   0.1549843), wk =   0.0208333
        k(   84) = (   0.2500000   0.4330127   0.2324765), wk =   0.0208333
        k(   85) = (   0.2500000   0.4330127  -0.3099687), wk =   0.0104167
        k(   86) = (   0.2500000   0.5292377   0.0000000), wk =   0.0208333
        k(   87) = (   0.2500000   0.5292377   0.0774922), wk =   0.0416667
        k(   88) = (   0.2500000   0.5292377   0.1549843), wk =   0.0416667
        k(   89) = (   0.2500000   0.5292377   0.2324765), wk =   0.0416667
        k(   90) = (   0.2500000   0.5292377  -0.3099687), wk =   0.0208333
        k(   91) = (   0.3333333   0.5773503   0.0000000), wk =   0.0034722
        k(   92) = (   0.3333333   0.5773503   0.0774922), wk =   0.0069444
        k(   93) = (   0.3333333   0.5773503   0.1549843), wk =   0.0069444
        k(   94) = (   0.3333333   0.5773503   0.2324765), wk =   0.0069444
        k(   95) = (   0.3333333   0.5773503  -0.3099687), wk =   0.0034722

                       cryst. coord.
        k(    1) = (   0.0000000   0.0000000   0.0000000), wk =   0.0017361
        k(    2) = (   0.0000000   0.0000000   0.1250000), wk =   0.0034722
        k(    3) = (   0.0000000   0.0000000   0.2500000), wk =   0.0034722
        k(    4) = (   0.0000000   0.0000000   0.3750000), wk =   0.0034722
        k(    5) = (   0.0000000   0.0000000  -0.5000000), wk =   0.0017361
        k(    6) = (   0.0000000   0.0833333   0.0000000), wk =   0.0104167
        k(    7) = (   0.0000000   0.0833333   0.1250000), wk =   0.0208333
        k(    8) = (   0.0000000   0.0833333   0.2500000), wk =   0.0208333
        k(    9) = (   0.0000000   0.0833333   0.3750000), wk =   0.0208333
        k(   10) = (   0.0000000   0.0833333  -0.5000000), wk =   0.0104167
        k(   11) = (   0.0000000   0.1666667   0.0000000), wk =   0.0104167
        k(   12) = (   0.0000000   0.1666667   0.1250000), wk =   0.0208333
        k(   13) = (   0.0000000   0.1666667   0.2500000), wk =   0.0208333
        k(   14) = (   0.0000000   0.1666667   0.3750000), wk =   0.0208333
        k(   15) = (   0.0000000   0.1666667  -0.5000000), wk =   0.0104167
        k(   16) = (   0.0000000   0.2500000   0.0000000), wk =   0.0104167
        k(   17) = (   0.0000000   0.2500000   0.1250000), wk =   0.0208333
        k(   18) = (   0.0000000   0.2500000   0.2500000), wk =   0.0208333
        k(   19) = (   0.0000000   0.2500000   0.3750000), wk =   0.0208333
        k(   20) = (   0.0000000   0.2500000  -0.5000000), wk =   0.0104167
        k(   21) = (   0.0000000   0.3333333   0.0000000), wk =   0.0104167
        k(   22) = (   0.0000000   0.3333333   0.1250000), wk =   0.0208333
        k(   23) = (   0.0000000   0.3333333   0.2500000), wk =   0.0208333
        k(   24) = (   0.0000000   0.3333333   0.3750000), wk =   0.0208333
        k(   25) = (   0.0000000   0.3333333  -0.5000000), wk =   0.0104167
        k(   26) = (   0.0000000   0.4166667   0.0000000), wk =   0.0104167
        k(   27) = (   0.0000000   0.4166667   0.1250000), wk =   0.0208333
        k(   28) = (   0.0000000   0.4166667   0.2500000), wk =   0.0208333
        k(   29) = (   0.0000000   0.4166667   0.3750000), wk =   0.0208333
        k(   30) = (   0.0000000   0.4166667  -0.5000000), wk =   0.0104167
        k(   31) = (   0.0000000  -0.5000000   0.0000000), wk =   0.0052083
        k(   32) = (   0.0000000  -0.5000000   0.1250000), wk =   0.0104167
        k(   33) = (   0.0000000  -0.5000000   0.2500000), wk =   0.0104167
        k(   34) = (   0.0000000  -0.5000000   0.3750000), wk =   0.0104167
        k(   35) = (   0.0000000  -0.5000000  -0.5000000), wk =   0.0052083
        k(   36) = (   0.0833333   0.0833333   0.0000000), wk =   0.0104167
        k(   37) = (   0.0833333   0.0833333   0.1250000), wk =   0.0208333
        k(   38) = (   0.0833333   0.0833333   0.2500000), wk =   0.0208333
        k(   39) = (   0.0833333   0.0833333   0.3750000), wk =   0.0208333
        k(   40) = (   0.0833333   0.0833333  -0.5000000), wk =   0.0104167
        k(   41) = (   0.0833333   0.1666667   0.0000000), wk =   0.0208333
        k(   42) = (   0.0833333   0.1666667   0.1250000), wk =   0.0416667
        k(   43) = (   0.0833333   0.1666667   0.2500000), wk =   0.0416667
        k(   44) = (   0.0833333   0.1666667   0.3750000), wk =   0.0416667
        k(   45) = (   0.0833333   0.1666667  -0.5000000), wk =   0.0208333
        k(   46) = (   0.0833333   0.2500000   0.0000000), wk =   0.0208333
        k(   47) = (   0.0833333   0.2500000   0.1250000), wk =   0.0416667
        k(   48) = (   0.0833333   0.2500000   0.2500000), wk =   0.0416667
        k(   49) = (   0.0833333   0.2500000   0.3750000), wk =   0.0416667
        k(   50) = (   0.0833333   0.2500000  -0.5000000), wk =   0.0208333
        k(   51) = (   0.0833333   0.3333333   0.0000000), wk =   0.0208333
        k(   52) = (   0.0833333   0.3333333   0.1250000), wk =   0.0416667
        k(   53) = (   0.0833333   0.3333333   0.2500000), wk =   0.0416667
        k(   54) = (   0.0833333   0.3333333   0.3750000), wk =   0.0416667
        k(   55) = (   0.0833333   0.3333333  -0.5000000), wk =   0.0208333
        k(   56) = (   0.0833333   0.4166667   0.0000000), wk =   0.0208333
        k(   57) = (   0.0833333   0.4166667   0.1250000), wk =   0.0416667
        k(   58) = (   0.0833333   0.4166667   0.2500000), wk =   0.0416667
        k(   59) = (   0.0833333   0.4166667   0.3750000), wk =   0.0416667
        k(   60) = (   0.0833333   0.4166667  -0.5000000), wk =   0.0208333
        k(   61) = (   0.1666667   0.1666667   0.0000000), wk =   0.0104167
        k(   62) = (   0.1666667   0.1666667   0.1250000), wk =   0.0208333
        k(   63) = (   0.1666667   0.1666667   0.2500000), wk =   0.0208333
        k(   64) = (   0.1666667   0.1666667   0.3750000), wk =   0.0208333
        k(   65) = (   0.1666667   0.1666667  -0.5000000), wk =   0.0104167
        k(   66) = (   0.1666667   0.2500000   0.0000000), wk =   0.0208333
        k(   67) = (   0.1666667   0.2500000   0.1250000), wk =   0.0416667
        k(   68) = (   0.1666667   0.2500000   0.2500000), wk =   0.0416667
        k(   69) = (   0.1666667   0.2500000   0.3750000), wk =   0.0416667
        k(   70) = (   0.1666667   0.2500000  -0.5000000), wk =   0.0208333
        k(   71) = (   0.1666667   0.3333333   0.0000000), wk =   0.0208333
        k(   72) = (   0.1666667   0.3333333   0.1250000), wk =   0.0416667
        k(   73) = (   0.1666667   0.3333333   0.2500000), wk =   0.0416667
        k(   74) = (   0.1666667   0.3333333   0.3750000), wk =   0.0416667
        k(   75) = (   0.1666667   0.3333333  -0.5000000), wk =   0.0208333
        k(   76) = (   0.1666667   0.4166667   0.0000000), wk =   0.0104167
        k(   77) = (   0.1666667   0.4166667   0.1250000), wk =   0.0208333
        k(   78) = (   0.1666667   0.4166667   0.2500000), wk =   0.0208333
        k(   79) = (   0.1666667   0.4166667   0.3750000), wk =   0.0208333
        k(   80) = (   0.1666667   0.4166667  -0.5000000), wk =   0.0104167
        k(   81) = (   0.2500000   0.2500000   0.0000000), wk =   0.0104167
        k(   82) = (   0.2500000   0.2500000   0.1250000), wk =   0.0208333
        k(   83) = (   0.2500000   0.2500000   0.2500000), wk =   0.0208333
        k(   84) = (   0.2500000   0.2500000   0.3750000), wk =   0.0208333
        k(   85) = (   0.2500000   0.2500000  -0.5000000), wk =   0.0104167
        k(   86) = (   0.2500000   0.3333333   0.0000000), wk =   0.0208333
        k(   87) = (   0.2500000   0.3333333   0.1250000), wk =   0.0416667
        k(   88) = (   0.2500000   0.3333333   0.2500000), wk =   0.0416667
        k(   89) = (   0.2500000   0.3333333   0.3750000), wk =   0.0416667
        k(   90) = (   0.2500000   0.3333333  -0.5000000), wk =   0.0208333
        k(   91) = (   0.3333333   0.3333333   0.0000000), wk =   0.0034722
        k(   92) = (   0.3333333   0.3333333   0.1250000), wk =   0.0069444
        k(   93) = (   0.3333333   0.3333333   0.2500000), wk =   0.0069444
        k(   94) = (   0.3333333   0.3333333   0.3750000), wk =   0.0069444
        k(   95) = (   0.3333333   0.3333333  -0.5000000), wk =   0.0034722

     Dense  grid:    40615 G-vectors     FFT dimensions: (  40,  40,  64)

     Smooth grid:    14449 G-vectors     FFT dimensions: (  27,  27,  48)

     Dynamical RAM for                 wfc:       0.85 MB

     Dynamical RAM for     wfc (w. buffer):      81.60 MB

     Dynamical RAM for           str. fact:       1.24 MB

     Dynamical RAM for           local pot:       0.00 MB

     Dynamical RAM for          nlocal pot:       1.43 MB

     Dynamical RAM for                qrad:       3.21 MB

     Dynamical RAM for          rho,v,vnew:       4.20 MB

     Dynamical RAM for               rhoin:       1.40 MB

     Dynamical RAM for            rho*nmix:       9.92 MB

     Dynamical RAM for           G-vectors:       2.43 MB

     Dynamical RAM for          h,s,v(r/c):       0.18 MB

     Dynamical RAM for          <psi|beta>:       0.02 MB

     Dynamical RAM for                 psi:       1.70 MB

     Dynamical RAM for                hpsi:       1.70 MB

     Dynamical RAM for                spsi:       1.70 MB

     Dynamical RAM for      wfcinit/wfcrot:       1.89 MB

     Dynamical RAM for           addusdens:     116.51 MB

     Dynamical RAM for          addusforce:     118.07 MB

     Dynamical RAM for         addusstress:     124.57 MB

     Estimated static dynamical RAM per process >     101.28 MB

     Estimated max dynamical RAM per process >     235.76 MB

     Check: negative core charge=   -0.000003

     Initial potential from superposition of free atoms

     starting charge      51.9997, renormalised to      52.0000
     Starting wfcs are   34 randomized atomic wfcs
     Checking if some PAW data can be deallocated... 

     total cpu time spent up to now is        7.9 secs

     Self-consistent Calculation

     iteration #  1     ecut=    50.00 Ry     beta= 0.40
     Davidson diagonalization with overlap

---- Real-time Memory Report at c_bands before calling an iterative solver
           166 MiB given to the printing process from OS
             0 MiB allocation reported by mallinfo(arena+hblkhd)
          4661 MiB available memory on the node where the printing process lives
------------------
     ethr =  1.00E-02,  avg # of iterations =  3.0

     total cpu time spent up to now is       25.6 secs

     total energy              =   -1006.31821411 Ry
     estimated scf accuracy    <       0.83585206 Ry

     iteration #  2     ecut=    50.00 Ry     beta= 0.40
     Davidson diagonalization with overlap

---- Real-time Memory Report at c_bands before calling an iterative solver
           278 MiB given to the printing process from OS
             0 MiB allocation reported by mallinfo(arena+hblkhd)
          4618 MiB available memory on the node where the printing process lives
------------------
     ethr =  1.61E-03,  avg # of iterations =  2.0

     total cpu time spent up to now is       45.7 secs

     WARNING: integrated charge=    52.00006923, expected=    52.00000000

     total energy              =   -1006.54256967 Ry
     estimated scf accuracy    <       0.08496465 Ry

     iteration #  3     ecut=    50.00 Ry     beta= 0.40
     Davidson diagonalization with overlap

---- Real-time Memory Report at c_bands before calling an iterative solver
           279 MiB given to the printing process from OS
             0 MiB allocation reported by mallinfo(arena+hblkhd)
          4613 MiB available memory on the node where the printing process lives
------------------
     ethr =  1.63E-04,  avg # of iterations =  2.6

     total cpu time spent up to now is       65.0 secs

     WARNING: integrated charge=    52.00005891, expected=    52.00000000

     total energy              =   -1006.55391274 Ry
     estimated scf accuracy    <       0.00865377 Ry

     iteration #  4     ecut=    50.00 Ry     beta= 0.40
     Davidson diagonalization with overlap

---- Real-time Memory Report at c_bands before calling an iterative solver
           279 MiB given to the printing process from OS
             0 MiB allocation reported by mallinfo(arena+hblkhd)
          4614 MiB available memory on the node where the printing process lives
------------------
     ethr =  1.66E-05,  avg # of iterations =  3.3

     total cpu time spent up to now is       81.8 secs

     WARNING: integrated charge=    52.00003557, expected=    52.00000000

     total energy              =   -1006.55408372 Ry
     estimated scf accuracy    <       0.00182419 Ry

     iteration #  5     ecut=    50.00 Ry     beta= 0.40
     Davidson diagonalization with overlap

---- Real-time Memory Report at c_bands before calling an iterative solver
           280 MiB given to the printing process from OS
             0 MiB allocation reported by mallinfo(arena+hblkhd)
          4611 MiB available memory on the node where the printing process lives
------------------
     ethr =  3.51E-06,  avg # of iterations =  2.2

     total cpu time spent up to now is       99.2 secs

     WARNING: integrated charge=    52.00002817, expected=    52.00000000

     total energy              =   -1006.55417667 Ry
     estimated scf accuracy    <       0.00003635 Ry

     iteration #  6     ecut=    50.00 Ry     beta= 0.40
     Davidson diagonalization with overlap

---- Real-time Memory Report at c_bands before calling an iterative solver
           280 MiB given to the printing process from OS
             0 MiB allocation reported by mallinfo(arena+hblkhd)
          4610 MiB available memory on the node where the printing process lives
------------------
     ethr =  6.99E-08,  avg # of iterations =  3.0

     total cpu time spent up to now is      122.6 secs

     WARNING: integrated charge=    52.00002687, expected=    52.00000000

     total energy              =   -1006.55418476 Ry
     estimated scf accuracy    <       0.00007645 Ry

     iteration #  7     ecut=    50.00 Ry     beta= 0.40
     Davidson diagonalization with overlap

---- Real-time Memory Report at c_bands before calling an iterative solver
           281 MiB given to the printing process from OS
             0 MiB allocation reported by mallinfo(arena+hblkhd)
          4609 MiB available memory on the node where the printing process lives
------------------
     ethr =  6.99E-08,  avg # of iterations =  2.0

     total cpu time spent up to now is      145.6 secs

     WARNING: integrated charge=    52.00002629, expected=    52.00000000

     total energy              =   -1006.55419676 Ry
     estimated scf accuracy    <       0.00000112 Ry

     iteration #  8     ecut=    50.00 Ry     beta= 0.40
     Davidson diagonalization with overlap

---- Real-time Memory Report at c_bands before calling an iterative solver
           285 MiB given to the printing process from OS
             0 MiB allocation reported by mallinfo(arena+hblkhd)
          4558 MiB available memory on the node where the printing process lives
------------------
     ethr =  2.15E-09,  avg # of iterations =  2.0

     total cpu time spent up to now is      166.2 secs

     WARNING: integrated charge=    52.00002617, expected=    52.00000000

     total energy              =   -1006.55419663 Ry
     estimated scf accuracy    <       0.00000055 Ry

     iteration #  9     ecut=    50.00 Ry     beta= 0.40
     Davidson diagonalization with overlap

---- Real-time Memory Report at c_bands before calling an iterative solver
           286 MiB given to the printing process from OS
             0 MiB allocation reported by mallinfo(arena+hblkhd)
          4556 MiB available memory on the node where the printing process lives
------------------
     ethr =  1.05E-09,  avg # of iterations =  2.0

     total cpu time spent up to now is      192.0 secs

     WARNING: integrated charge=    52.00002609, expected=    52.00000000

     total energy              =   -1006.55419687 Ry
     estimated scf accuracy    <       0.00000009 Ry

     iteration # 10     ecut=    50.00 Ry     beta= 0.40
     Davidson diagonalization with overlap

---- Real-time Memory Report at c_bands before calling an iterative solver
           287 MiB given to the printing process from OS
             0 MiB allocation reported by mallinfo(arena+hblkhd)
          4558 MiB available memory on the node where the printing process lives
------------------
     ethr =  1.68E-10,  avg # of iterations =  2.1

     total cpu time spent up to now is      238.0 secs

     End of self-consistent calculation

          k = 0.0000 0.0000 0.0000 (  1785 PWs)   bands (ev):

  -113.5889-113.5886 -67.7932 -67.7892 -67.7872 -67.7872 -67.7867 -67.7867
    -8.6871  -7.8548   3.7878   3.8897   3.8897   3.9431   4.1039   4.1039
     5.2667   5.2667   5.5102   5.5102   5.8107   9.0766   9.0766   9.8364
     9.9487   9.9487  10.8345  15.4300  18.3608  23.2158  23.2158

     occupation numbers 
     1.0000   1.0000   1.0000   1.0000   1.0000   1.0000   1.0000   1.0000
     1.0000   1.0000   1.0000   1.0000   1.0000   1.0000   1.0000   1.0000
     1.0000   1.0000   1.0000   1.0000   1.0000   1.0000   1.0000   1.0001
     1.0009   1.0009   0.0083   0.0000   0.0000   0.0000   0.0000

          k = 0.0000 0.0000 0.0775 (  1798 PWs)   bands (ev):

  -113.5889-113.5886 -67.7931 -67.7894 -67.7872 -67.7872 -67.7867 -67.7867
    -8.6573  -7.8885   3.7336   3.8939   3.8939   3.9070   4.0912   4.0912
     5.2794   5.2794   5.5050   5.5050   5.9866   9.1103   9.1103   9.4817
     9.9162   9.9162  11.2433  15.2824  18.4883  23.2142  23.2142

     occupation numbers 
     1.0000   1.0000   1.0000   1.0000   1.0000   1.0000   1.0000   1.0000
     1.0000   1.0000   1.0000   1.0000   1.0000   1.0000   1.0000   1.0000
     1.0000   1.0000   1.0000   1.0000   1.0000   1.0000   1.0000   1.0000
     1.0004   1.0004   0.0000   0.0000   0.0000   0.0000   0.0000

          k = 0.0000 0.0000 0.1550 (  1798 PWs)   bands (ev):

  -113.5889-113.5887 -67.7927 -67.7897 -67.7872 -67.7872 -67.7867 -67.7867
    -8.5718  -7.9836   3.6368   3.8135   3.9075   3.9075   4.0576   4.0576
     5.3144   5.3144   5.4880   5.4880   6.4324   8.8947   9.2060   9.2061
     9.8232   9.8232  11.9722  14.8750  18.8567  22.5434  23.2324

     occupation numbers 
     1.0000   1.0000   1.0000   1.0000   1.0000   1.0000   1.0000   1.0000
     1.0000   1.0000   1.0000   1.0000   1.0000   1.0000   1.0000   1.0000
     1.0000   1.0000   1.0000   1.0000   1.0000   1.0000   1.0000   1.0000
     1.0000   1.0000   0.0000   0.0000   0.0000   0.0000   0.0000

          k = 0.0000 0.0000 0.2325 (  1804 PWs)   bands (ev):

  -113.5888-113.5887 -67.7921 -67.7905 -67.7871 -67.7871 -67.7868 -67.7868
    -8.4416  -8.1233   3.5861   3.6999   3.9324   3.9324   4.0131   4.0131
     5.3627   5.3627   5.4573   5.4573   7.0155   8.2780   9.3490   9.3490
     9.6832   9.6832  12.7672  14.2773  19.4523  21.3290  23.3170

     occupation numbers 
     1.0000   1.0000   1.0000   1.0000   1.0000   1.0000   1.0000   1.0000
     1.0000   1.0000   1.0000   1.0000   1.0000   1.0000   1.0000   1.0000
     1.0000   1.0000   1.0000   1.0000   1.0000   1.0000   1.0000   1.0000
     1.0000   1.0000   0.0000   0.0000   0.0000   0.0000   0.0000

          k = 0.0000 0.0000-0.3100 (  1822 PWs)   bands (ev):

  -113.5888-113.5888 -67.7914 -67.7914 -67.7870 -67.7870 -67.7870 -67.7870
    -8.2844  -8.2844   3.6118   3.6118   3.9687   3.9687   3.9687   3.9687
     5.4136   5.4136   5.4136   5.4136   7.6463   7.6463   9.5167   9.5167
     9.5167   9.5167  13.5549  13.5549  20.2787  20.2787  23.5023

     occupation numbers 
     1.0000   1.0000   1.0000   1.0000   1.0000   1.0000   1.0000   1.0000
     1.0000   1.0000   1.0000   1.0000   1.0000   1.0000   1.0000   1.0000
     1.0000   1.0000   1.0000   1.0000   1.0000   1.0000   1.0000   1.0000
     1.0000   1.0000   0.0000   0.0000   0.0000   0.0000   0.0000

          k = 0.0000 0.0962 0.0000 (  1787 PWs)   bands (ev):

  -113.5889-113.5886 -67.7932 -67.7892 -67.7874 -67.7873 -67.7868 -67.7867
    -8.6430  -7.8348   3.8177   3.8679   3.9144   3.9713   4.0979   4.1384
     5.2472   5.2635   5.5143   5.5367   5.8016   8.8091   8.9748   9.4797
     9.7874   9.8939  11.3954  15.7393  18.3519  22.4086  23.2909

     occupation numbers 
     1.0000   1.0000   1.0000   1.0000   1.0000   1.0000   1.0000   1.0000
     1.0000   1.0000   1.0000   1.0000   1.0000   1.0000   1.0000   1.0000
     1.0000   1.0000   1.0000   1.0000   1.0000   1.0000   1.0000   1.0000
     1.0000   1.0002   0.0000   0.0000   0.0000   0.0000   0.0000

          k = 0.0000 0.0962 0.0775 (  1790 PWs)   bands (ev):

  -113.5889-113.5886 -67.7930 -67.7894 -67.7874 -67.7873 -67.7868 -67.7867
    -8.6139  -7.8674   3.7680   3.8285   3.9190   3.9583   4.0938   4.1253
     5.2618   5.2763   5.5085   5.5238   5.9895   8.8432   9.0104   9.2559
     9.7704   9.8597  11.6571  15.5760  18.4855  22.4345  23.2902

     occupation numbers 
     1.0000   1.0000   1.0000   1.0000   1.0000   1.0000   1.0000   1.0000
     1.0000   1.0000   1.0000   1.0000   1.0000   1.0000   1.0000   1.0000
     1.0000   1.0000   1.0000   1.0000   1.0000   1.0000   1.0000   1.0000
     1.0000   1.0001   0.0000   0.0000   0.0000   0.0000   0.0000

          k = 0.0000 0.0962 0.1550 (  1801 PWs)   bands (ev):

  -113.5889-113.5887 -67.7927 -67.7898 -67.7874 -67.7873 -67.7870 -67.7868
    -8.5305  -7.9592   3.6510   3.7570   3.9338   3.9465   4.0696   4.0906
     5.3015   5.3113   5.4899   5.4994   6.4480   8.7749   8.9661   9.1118
     9.6690   9.7620  12.2624  15.1368  18.8614  22.3783  22.7084

     occupation numbers 
     1.0000   1.0000   1.0000   1.0000   1.0000   1.0000   1.0000   1.0000
     1.0000   1.0000   1.0000   1.0000   1.0000   1.0000   1.0000   1.0000
     1.0000   1.0000   1.0000   1.0000   1.0000   1.0000   1.0000   1.0000
     1.0000   1.0000   0.0000   0.0000   0.0000   0.0000   0.0000

          k = 0.0000 0.0962 0.2325 (  1815 PWs)   bands (ev):

  -113.5888-113.5887 -67.7921 -67.7906 -67.7873 -67.7872 -67.7871 -67.7869
    -8.4036  -8.0945   3.5794   3.6606   3.9590   3.9602   4.0302   4.0445
     5.3558   5.3600   5.4572   5.4626   7.0327   8.2400   9.1145   9.2627
     9.5013   9.6147  13.0049  14.5121  19.4551  21.2984  22.7555

     occupation numbers 
     1.0000   1.0000   1.0000   1.0000   1.0000   1.0000   1.0000   1.0000
     1.0000   1.0000   1.0000   1.0000   1.0000   1.0000   1.0000   1.0000
     1.0000   1.0000   1.0000   1.0000   1.0000   1.0000   1.0000   1.0000
     1.0000   1.0000   0.0000   0.0000   0.0000   0.0000   0.0000

          k = 0.0000 0.0962-0.3100 (  1812 PWs)   bands (ev):

  -113.5888-113.5888 -67.7913 -67.7913 -67.7872 -67.7872 -67.7871 -67.7871
    -8.2508  -8.2508   3.5877   3.5877   3.9897   3.9897   3.9983   3.9983
     5.4118   5.4118   5.4129   5.4129   7.6481   7.6481   9.3050   9.3050
     9.4395   9.4395  13.7789  13.7789  20.2693  20.2693  23.0041

     occupation numbers 
     1.0000   1.0000   1.0000   1.0000   1.0000   1.0000   1.0000   1.0000
     1.0000   1.0000   1.0000   1.0000   1.0000   1.0000   1.0000   1.0000
     1.0000   1.0000   1.0000   1.0000   1.0000   1.0000   1.0000   1.0000
     1.0000   1.0000   0.0000   0.0000   0.0000   0.0000   0.0000

          k = 0.0000 0.1925 0.0000 (  1790 PWs)   bands (ev):

  -113.5889-113.5886 -67.7930 -67.7893 -67.7880 -67.7874 -67.7874 -67.7868
    -8.5186  -7.7817   3.6996   3.9797   3.9907   4.0268   4.1493   4.2377
     5.1946   5.2644   5.5240   5.6047   5.7873   8.1257   8.6975   8.8340
     9.6350   9.7388  12.3212  16.4964  18.3176  21.0499  22.9304

     occupation numbers 
     1.0000   1.0000   1.0000   1.0000   1.0000   1.0000   1.0000   1.0000
     1.0000   1.0000   1.0000   1.0000   1.0000   1.0000   1.0000   1.0000
     1.0000   1.0000   1.0000   1.0000   1.0000   1.0000   1.0000   1.0000
     1.0000   1.0000   0.0000   0.0000   0.0000   0.0000   0.0000

          k = 0.0000 0.1925 0.0775 (  1792 PWs)   bands (ev):

  -113.5888-113.5886 -67.7928 -67.7895 -67.7880 -67.7874 -67.7874 -67.7868
    -8.4916  -7.8108   3.6767   3.8731   3.9857   4.0346   4.1524   4.2233
     5.2159   5.2766   5.5167   5.5705   6.0082   8.1636   8.7341   8.7386
     9.5917   9.7004  12.4815  16.2798  18.4749  21.0904  22.8321

     occupation numbers 
     1.0000   1.0000   1.0000   1.0000   1.0000   1.0000   1.0000   1.0000
     1.0000   1.0000   1.0000   1.0000   1.0000   1.0000   1.0000   1.0000
     1.0000   1.0000   1.0000   1.0000   1.0000   1.0000   1.0000   1.0000
     1.0000   1.0000   0.0000   0.0000   0.0000   0.0000   0.0000

          k = 0.0000 0.1925 0.1550 (  1797 PWs)   bands (ev):

  -113.5888-113.5886 -67.7925 -67.7900 -67.7879 -67.7874 -67.7874 -67.7869
    -8.4145  -7.8933   3.6120   3.7001   4.0043   4.0263   4.1318   4.1848
     5.2697   5.3102   5.4944   5.5298   6.4918   8.2394   8.5249   8.8549
     9.4329   9.5906  12.9256  15.7484  18.8670  21.1576  22.4252

     occupation numbers 
     1.0000   1.0000   1.0000   1.0000   1.0000   1.0000   1.0000   1.0000
     1.0000   1.0000   1.0000   1.0000   1.0000   1.0000   1.0000   1.0000
     1.0000   1.0000   1.0000   1.0000   1.0000   1.0000   1.0000   1.0000
     1.0000   1.0000   0.0000   0.0000   0.0000   0.0000   0.0000

          k = 0.0000 0.1925 0.2325 (  1801 PWs)   bands (ev):

  -113.5888-113.5887 -67.7919 -67.7906 -67.7877 -67.7875 -67.7873 -67.7870
    -8.2976  -8.0155   3.5393   3.5792   4.0317   4.0363   4.0939   4.1333
     5.3403   5.3579   5.4578   5.4787   7.0615   8.0361   8.5798   9.0270
     9.1614   9.4250  13.5651  15.0574  19.4263  20.8834  22.0232

     occupation numbers 
     1.0000   1.0000   1.0000   1.0000   1.0000   1.0000   1.0000   1.0000
     1.0000   1.0000   1.0000   1.0000   1.0000   1.0000   1.0000   1.0000
     1.0000   1.0000   1.0000   1.0000   1.0000   1.0000   1.0000   1.0000
     1.0000   1.0000   0.0000   0.0000   0.0000   0.0000   0.0000

          k = 0.0000 0.1925-0.3100 (  1800 PWs)   bands (ev):

  -113.5887-113.5887 -67.7913 -67.7913 -67.7876 -67.7876 -67.7872 -67.7872
    -8.1577  -8.1577   3.5228   3.5228   4.0564   4.0564   4.0808   4.0808
     5.4101   5.4101   5.4136   5.4136   7.5995   7.5995   8.8476   8.8476
     9.2273   9.2273  14.3036  14.3036  20.1374  20.1374  22.2031

     occupation numbers 
     1.0000   1.0000   1.0000   1.0000   1.0000   1.0000   1.0000   1.0000
     1.0000   1.0000   1.0000   1.0000   1.0000   1.0000   1.0000   1.0000
     1.0000   1.0000   1.0000   1.0000   1.0000   1.0000   1.0000   1.0000
     1.0000   1.0000   0.0000   0.0000   0.0000   0.0000   0.0000

          k = 0.0000 0.2887 0.0000 (  1794 PWs)   bands (ev):

  -113.5888-113.5886 -67.7927 -67.7895 -67.7888 -67.7881 -67.7877 -67.7869
    -8.3376  -7.7144   3.5689   3.9577   4.0603   4.1664   4.3891   4.3955
     5.1319   5.2902   5.5354   5.6382   5.8477   7.3085   8.2050   8.3140
     9.3784   9.5153  13.3428  17.3265  18.2410  19.8416  21.9777

     occupation numbers 
     1.0000   1.0000   1.0000   1.0000   1.0000   1.0000   1.0000   1.0000
     1.0000   1.0000   1.0000   1.0000   1.0000   1.0000   1.0000   1.0000
     1.0000   1.0000   1.0000   1.0000   1.0000   1.0000   1.0000   1.0000
     1.0000   1.0000   0.0000   0.0000   0.0000   0.0000   0.0000

          k = 0.0000 0.2887 0.0775 (  1793 PWs)   bands (ev):

  -113.5888-113.5886 -67.7926 -67.7897 -67.7887 -67.7880 -67.7877 -67.7870
    -8.3142  -7.7382   3.5478   3.8726   4.0690   4.1542   4.3446   4.3719
     5.1653   5.3003   5.5266   5.6147   6.0685   7.3592   8.1388   8.3628
     9.3595   9.4717  13.4359  17.0034  18.4634  19.8870  21.9324

     occupation numbers 
     1.0000   1.0000   1.0000   1.0000   1.0000   1.0000   1.0000   1.0000
     1.0000   1.0000   1.0000   1.0000   1.0000   1.0000   1.0000   1.0000
     1.0000   1.0000   1.0000   1.0000   1.0000   1.0000   1.0000   1.0000
     1.0000   1.0000   0.0000   0.0000   0.0000   0.0000   0.0000

          k = 0.0000 0.2887 0.1550 (  1796 PWs)   bands (ev):

  -113.5888-113.5886 -67.7923 -67.7902 -67.7885 -67.7880 -67.7876 -67.7870
    -8.2473  -7.8061   3.4951   3.6862   4.0953   4.1377   4.2709   4.3253
     5.2398   5.3287   5.5015   5.5700   6.5334   7.4969   8.0085   8.5001
     9.2398   9.3468  13.7303  16.3629  18.8521  19.9878  21.7514

     occupation numbers 
     1.0000   1.0000   1.0000   1.0000   1.0000   1.0000   1.0000   1.0000
     1.0000   1.0000   1.0000   1.0000   1.0000   1.0000   1.0000   1.0000
     1.0000   1.0000   1.0000   1.0000   1.0000   1.0000   1.0000   1.0000
     1.0000   1.0000   0.0000   0.0000   0.0000   0.0000   0.0000

          k = 0.0000 0.2887 0.2325 (  1801 PWs)   bands (ev):

  -113.5887-113.5886 -67.7919 -67.7908 -67.7884 -67.7881 -67.7875 -67.7872
    -8.1467  -7.9078   3.4455   3.5256   4.1386   4.1393   4.2104   4.2621
     5.3308   5.3700   5.4633   5.5052   6.9898   7.5355   8.0896   8.7008
     8.9444   9.1580  14.2309  15.6275  19.2813  19.9889  21.6019

     occupation numbers 
     1.0000   1.0000   1.0000   1.0000   1.0000   1.0000   1.0000   1.0000
     1.0000   1.0000   1.0000   1.0000   1.0000   1.0000   1.0000   1.0000
     1.0000   1.0000   1.0000   1.0000   1.0000   1.0000   1.0000   1.0000
     1.0000   1.0000   0.0000   0.0000   0.0000   0.0000   0.0000

          k = 0.0000 0.2887-0.3100 (  1792 PWs)   bands (ev):

  -113.5887-113.5887 -67.7913 -67.7913 -67.7882 -67.7882 -67.7873 -67.7873
    -8.0275  -8.0275   3.4454   3.4454   4.1647   4.1647   4.1963   4.1963
     5.4173   5.4173   5.4230   5.4230   7.3241   7.3241   8.5067   8.5067
     8.9318   8.9318  14.8897  14.8897  19.7104  19.7104  21.8117

     occupation numbers 
     1.0000   1.0000   1.0000   1.0000   1.0000   1.0000   1.0000   1.0000
     1.0000   1.0000   1.0000   1.0000   1.0000   1.0000   1.0000   1.0000
     1.0000   1.0000   1.0000   1.0000   1.0000   1.0000   1.0000   1.0000
     1.0000   1.0000   0.0000   0.0000   0.0000   0.0000   0.0000

          k = 0.0000 0.3849 0.0000 (  1796 PWs)   bands (ev):

  -113.5887-113.5886 -67.7922 -67.7898 -67.7895 -67.7888 -67.7880 -67.7871
    -8.1375  -7.6589   3.5002   3.8962   4.1264   4.3143   4.5653   4.6317
     5.1444   5.3516   5.5480   5.6326   5.9696   6.6114   7.6029   7.9115
     9.0401   9.2776  14.3896  17.7333  18.0637  19.0631  21.3713

     occupation numbers 
     1.0000   1.0000   1.0000   1.0000   1.0000   1.0000   1.0000   1.0000
     1.0000   1.0000   1.0000   1.0000   1.0000   1.0000   1.0000   1.0000
     1.0000   1.0000   1.0000   1.0000   1.0000   1.0000   1.0000   1.0000
     1.0000   1.0000   0.0000   0.0000   0.0000   0.0000   0.0000

          k = 0.0000 0.3849 0.0775 (  1800 PWs)   bands (ev):

  -113.5887-113.5886 -67.7923 -67.7900 -67.7894 -67.7887 -67.7880 -67.7871
    -8.1187  -7.6763   3.4778   3.8225   4.1389   4.2974   4.5431   4.5510
     5.1766   5.3583   5.5384   5.6464   6.1159   6.6950   7.5666   7.9695
     9.0565   9.2290  14.4193  17.3112  18.3952  19.0885  21.3450

     occupation numbers 
     1.0000   1.0000   1.0000   1.0000   1.0000   1.0000   1.0000   1.0000
     1.0000   1.0000   1.0000   1.0000   1.0000   1.0000   1.0000   1.0000
     1.0000   1.0000   1.0000   1.0000   1.0000   1.0000   1.0000   1.0000
     1.0000   1.0000   0.0000   0.0000   0.0000   0.0000   0.0000

          k = 0.0000 0.3849 0.1550 (  1796 PWs)   bands (ev):

  -113.5887-113.5886 -67.7921 -67.7905 -67.7892 -67.7886 -67.7879 -67.7872
    -8.0654  -7.7264   3.4245   3.6480   4.1759   4.2720   4.4350   4.4829
     5.2549   5.3775   5.5132   5.6130   6.3930   6.9058   7.5731   8.1306
     9.0280   9.0898  14.5520  16.6842  18.7623  19.1646  21.2658

     occupation numbers 
     1.0000   1.0000   1.0000   1.0000   1.0000   1.0000   1.0000   1.0000
     1.0000   1.0000   1.0000   1.0000   1.0000   1.0000   1.0000   1.0000
     1.0000   1.0000   1.0000   1.0000   1.0000   1.0000   1.0000   1.0000
     1.0000   1.0000   0.0000   0.0000   0.0000   0.0000   0.0000

          k = 0.0000 0.3849 0.2325 (  1799 PWs)   bands (ev):

  -113.5887-113.5886 -67.7918 -67.7910 -67.7890 -67.7887 -67.7877 -67.7873
    -7.9861  -7.8024   3.3792   3.4809   4.2356   4.2691   4.3514   4.4004
     5.3527   5.4065   5.4789   5.5418   6.6154   6.9406   7.9157   8.3622
     8.8279   8.8788  14.8657  16.0125  19.0306  19.2408  21.3144

     occupation numbers 
     1.0000   1.0000   1.0000   1.0000   1.0000   1.0000   1.0000   1.0000
     1.0000   1.0000   1.0000   1.0000   1.0000   1.0000   1.0000   1.0000
     1.0000   1.0000   1.0000   1.0000   1.0000   1.0000   1.0000   1.0000
     1.0000   1.0000   0.0000   0.0000   0.0000   0.0000   0.0000

          k = 0.0000 0.3849-0.3100 (  1794 PWs)   bands (ev):

  -113.5886-113.5886 -67.7914 -67.7914 -67.7888 -67.7888 -67.7875 -67.7875
    -7.8936  -7.8936   3.3885   3.3885   4.2962   4.2962   4.3134   4.3134
     5.4417   5.4417   5.4519   5.4519   6.8008   6.8008   8.4242   8.4242
     8.6246   8.6246  15.3750  15.3750  19.1983  19.1983  21.6976

     occupation numbers 
     1.0000   1.0000   1.0000   1.0000   1.0000   1.0000   1.0000   1.0000
     1.0000   1.0000   1.0000   1.0000   1.0000   1.0000   1.0000   1.0000
     1.0000   1.0000   1.0000   1.0000   1.0000   1.0000   1.0000   1.0000
     1.0000   1.0000   0.0000   0.0000   0.0000   0.0000   0.0000

          k = 0.0000 0.4811 0.0000 (  1810 PWs)   bands (ev):

  -113.5887-113.5886 -67.7919 -67.7902 -67.7901 -67.7894 -67.7883 -67.7872
    -7.9677  -7.6368   3.5270   3.8128   4.1637   4.4585   4.6507   4.7149
     5.2651   5.4280   5.5606   5.7686   5.8332   6.3662   7.1052   7.5913
     8.7052   9.0927  15.3823  17.4559  17.6784  18.9212  21.0167

     occupation numbers 
     1.0000   1.0000   1.0000   1.0000   1.0000   1.0000   1.0000   1.0000
     1.0000   1.0000   1.0000   1.0000   1.0000   1.0000   1.0000   1.0000
     1.0000   1.0000   1.0000   1.0000   1.0000   1.0000   1.0000   1.0000
     1.0000   1.0000   0.0000   0.0000   0.0000   0.0000   0.0000

          k = 0.0000 0.4811 0.0775 (  1804 PWs)   bands (ev):

  -113.5887-113.5886 -67.7919 -67.7904 -67.7899 -67.7892 -67.7882 -67.7872
    -7.9538  -7.6480   3.4983   3.7460   4.1795   4.4372   4.6092   4.6869
     5.2899   5.4311   5.5510   5.7309   5.9021   6.4364   7.1761   7.6584
     8.7499   9.0405  15.3310  17.1250  17.9969  18.9437  20.9655

     occupation numbers 
     1.0000   1.0000   1.0000   1.0000   1.0000   1.0000   1.0000   1.0000
     1.0000   1.0000   1.0000   1.0000   1.0000   1.0000   1.0000   1.0000
     1.0000   1.0000   1.0000   1.0000   1.0000   1.0000   1.0000   1.0000
     1.0000   1.0000   0.0000   0.0000   0.0000   0.0000   0.0000

          k = 0.0000 0.4811 0.1550 (  1799 PWs)   bands (ev):

  -113.5887-113.5886 -67.7919 -67.7909 -67.7896 -67.7890 -67.7881 -67.7873
    -7.9149  -7.6804   3.4301   3.5909   4.2260   4.4051   4.5325   4.6108
     5.3543   5.4406   5.5280   5.6662   6.0268   6.4776   7.4851   7.8417
     8.8071   8.8909  15.2679  16.6658  18.3675  18.9850  20.9121

     occupation numbers 
     1.0000   1.0000   1.0000   1.0000   1.0000   1.0000   1.0000   1.0000
     1.0000   1.0000   1.0000   1.0000   1.0000   1.0000   1.0000   1.0000
     1.0000   1.0000   1.0000   1.0000   1.0000   1.0000   1.0000   1.0000
     1.0000   1.0000   0.0000   0.0000   0.0000   0.0000   0.0000

          k = 0.0000 0.4811 0.2325 (  1787 PWs)   bands (ev):

  -113.5886-113.5886 -67.7918 -67.7912 -67.7893 -67.7889 -67.7878 -67.7875
    -7.8579  -7.7308   3.3686   3.4424   4.3007   4.3967   4.4648   4.5071
     5.4354   5.4560   5.5013   5.5945   6.1594   6.4060   7.9733   8.1000
     8.6635   8.7289  15.3591  16.1558  18.6615  18.9745  21.0829

     occupation numbers 
     1.0000   1.0000   1.0000   1.0000   1.0000   1.0000   1.0000   1.0000
     1.0000   1.0000   1.0000   1.0000   1.0000   1.0000   1.0000   1.0000
     1.0000   1.0000   1.0000   1.0000   1.0000   1.0000   1.0000   1.0000
     1.0000   1.0000   0.0000   0.0000   0.0000   0.0000   0.0000

          k = 0.0000 0.4811-0.3100 (  1796 PWs)   bands (ev):

  -113.5886-113.5886 -67.7917 -67.7917 -67.7891 -67.7891 -67.7877 -67.7877
    -7.7930  -7.7930   3.3639   3.3639   4.3980   4.3980   4.4178   4.4178
     5.4765   5.4765   5.5174   5.5174   6.2894   6.2894   8.3878   8.3878
     8.4355   8.4355  15.6776  15.6776  18.8640  18.8640  21.5895

     occupation numbers 
     1.0000   1.0000   1.0000   1.0000   1.0000   1.0000   1.0000   1.0000
     1.0000   1.0000   1.0000   1.0000   1.0000   1.0000   1.0000   1.0000
     1.0000   1.0000   1.0000   1.0000   1.0000   1.0000   1.0000   1.0000
     1.0000   1.0000   0.0000   0.0000   0.0000   0.0000   0.0000

          k = 0.0000-0.5774 0.0000 (  1806 PWs)   bands (ev):

  -113.5886-113.5886 -67.7918 -67.7903 -67.7901 -67.7897 -67.7883 -67.7872
    -7.8941  -7.6390   3.5893   3.7395   4.1749   4.5313   4.6169   4.7748
     5.2960   5.4658   5.5664   5.6480   6.1278   6.1680   6.9236   7.4648
     8.5507   9.0223  16.0148  16.9102  17.6154  18.9208  20.8851

     occupation numbers 
     1.0000   1.0000   1.0000   1.0000   1.0000   1.0000   1.0000   1.0000
     1.0000   1.0000   1.0000   1.0000   1.0000   1.0000   1.0000   1.0000
     1.0000   1.0000   1.0000   1.0000   1.0000   1.0000   1.0000   1.0000
     1.0000   1.0000   0.0000   0.0000   0.0000   0.0000   0.0000

          k = 0.0000-0.5774 0.0775 (  1796 PWs)   bands (ev):

  -113.5886-113.5886 -67.7917 -67.7905 -67.7899 -67.7895 -67.7882 -67.7872
    -7.8829  -7.6470   3.5550   3.6776   4.1919   4.5073   4.5966   4.7439
     5.3424   5.4675   5.5565   5.6478   6.0927   6.1521   7.1049   7.5362
     8.6053   8.9688  15.8565  16.8208  17.8045  18.9482  20.8210

     occupation numbers 
     1.0000   1.0000   1.0000   1.0000   1.0000   1.0000   1.0000   1.0000
     1.0000   1.0000   1.0000   1.0000   1.0000   1.0000   1.0000   1.0000
     1.0000   1.0000   1.0000   1.0000   1.0000   1.0000   1.0000   1.0000
     1.0000   1.0000   0.0000   0.0000   0.0000   0.0000   0.0000

          k = 0.0000-0.5774 0.1550 (  1810 PWs)   bands (ev):

  -113.5886-113.5886 -67.7919 -67.7911 -67.7897 -67.7893 -67.7882 -67.7874
    -7.8516  -7.6707   3.4717   3.5384   4.2421   4.4729   4.5505   4.6604
     5.4350   5.4726   5.5345   5.6432   6.0463   6.1147   7.5310   7.7297
     8.6976   8.8153  15.6165  16.5564  18.1657  18.9849  20.7655

     occupation numbers 
     1.0000   1.0000   1.0000   1.0000   1.0000   1.0000   1.0000   1.0000
     1.0000   1.0000   1.0000   1.0000   1.0000   1.0000   1.0000   1.0000
     1.0000   1.0000   1.0000   1.0000   1.0000   1.0000   1.0000   1.0000
     1.0000   1.0000   0.0000   0.0000   0.0000   0.0000   0.0000

          k = 0.0000-0.5774 0.2325 (  1802 PWs)   bands (ev):

  -113.5886-113.5886 -67.7919 -67.7914 -67.7894 -67.7891 -67.7880 -67.7875
    -7.8063  -7.7083   3.3889   3.4124   4.3228   4.4603   4.5039   4.5469
     5.4814   5.5122   5.5222   5.6255   6.0295   6.0732   7.9995   8.0270
     8.5817   8.6777  15.5645  16.1645  18.4987  18.9296  20.9755

     occupation numbers 
     1.0000   1.0000   1.0000   1.0000   1.0000   1.0000   1.0000   1.0000
     1.0000   1.0000   1.0000   1.0000   1.0000   1.0000   1.0000   1.0000
     1.0000   1.0000   1.0000   1.0000   1.0000   1.0000   1.0000   1.0000
     1.0000   1.0000   0.0000   0.0000   0.0000   0.0000   0.0000

          k = 0.0000-0.5774-0.3100 (  1808 PWs)   bands (ev):

  -113.5886-113.5886 -67.7918 -67.7918 -67.7892 -67.7892 -67.7878 -67.7878
    -7.7557  -7.7557   3.3592   3.3592   4.4282   4.4282   4.4717   4.4717
     5.4944   5.4944   5.5866   5.5866   6.0413   6.0413   8.2976   8.2976
     8.4464   8.4464  15.7774  15.7774  18.7567  18.7567  21.5282

     occupation numbers 
     1.0000   1.0000   1.0000   1.0000   1.0000   1.0000   1.0000   1.0000
     1.0000   1.0000   1.0000   1.0000   1.0000   1.0000   1.0000   1.0000
     1.0000   1.0000   1.0000   1.0000   1.0000   1.0000   1.0000   1.0000
     1.0000   1.0000   0.0000   0.0000   0.0000   0.0000   0.0000

          k = 0.0833 0.1443 0.0000 (  1795 PWs)   bands (ev):

  -113.5889-113.5886 -67.7930 -67.7893 -67.7879 -67.7875 -67.7872 -67.7868
    -8.5587  -7.7983   3.7618   3.8817   4.0125   4.0208   4.1048   4.2093
     5.2151   5.2586   5.5203   5.5862   5.7891   8.3922   8.6680   9.0718
     9.6878   9.7701  12.0663  16.2743  18.3332  21.4626  22.9682

     occupation numbers 
     1.0000   1.0000   1.0000   1.0000   1.0000   1.0000   1.0000   1.0000
     1.0000   1.0000   1.0000   1.0000   1.0000   1.0000   1.0000   1.0000
     1.0000   1.0000   1.0000   1.0000   1.0000   1.0000   1.0000   1.0000
     1.0000   1.0000   0.0000   0.0000   0.0000   0.0000   0.0000

          k = 0.0833 0.1443 0.0775 (  1799 PWs)   bands (ev):

  -113.5889-113.5886 -67.7929 -67.7895 -67.7878 -67.7875 -67.7872 -67.7868
    -8.5310  -7.8285   3.7404   3.8150   3.9870   4.0033   4.1197   4.1955
     5.2330   5.2722   5.5134   5.5578   6.0005   8.4330   8.6688   8.9841
     9.6470   9.7326  12.2481  16.0764  18.4813  21.4983  22.9682

     occupation numbers 
     1.0000   1.0000   1.0000   1.0000   1.0000   1.0000   1.0000   1.0000
     1.0000   1.0000   1.0000   1.0000   1.0000   1.0000   1.0000   1.0000
     1.0000   1.0000   1.0000   1.0000   1.0000   1.0000   1.0000   1.0000
     1.0000   1.0000   0.0000   0.0000   0.0000   0.0000   0.0000

          k = 0.0833 0.1443 0.1550 (  1795 PWs)   bands (ev):

  -113.5888-113.5886 -67.7925 -67.7899 -67.7877 -67.7874 -67.7872 -67.7869
    -8.4518  -7.9141   3.6669   3.6776   3.9865   3.9922   4.1064   4.1588
     5.2810   5.3077   5.4923   5.5213   6.4783   8.5089   8.5528   8.9465
     9.5022   9.6253  12.7329  15.5745  18.8690  21.5433  22.6420

     occupation numbers 
     1.0000   1.0000   1.0000   1.0000   1.0000   1.0000   1.0000   1.0000
     1.0000   1.0000   1.0000   1.0000   1.0000   1.0000   1.0000   1.0000
     1.0000   1.0000   1.0000   1.0000   1.0000   1.0000   1.0000   1.0000
     1.0000   1.0000   0.0000   0.0000   0.0000   0.0000   0.0000

          k = 0.0833 0.1443 0.2325 (  1802 PWs)   bands (ev):

  -113.5888-113.5887 -67.7920 -67.7906 -67.7875 -67.7874 -67.7873 -67.7870
    -8.3316  -8.0406   3.5637   3.5968   3.9984   4.0084   4.0745   4.1108
     5.3459   5.3566   5.4567   5.4743   7.0570   8.1243   8.7433   9.0767
     9.2698   9.4644  13.4026  14.9026  19.4452  21.0853  22.1948

     occupation numbers 
     1.0000   1.0000   1.0000   1.0000   1.0000   1.0000   1.0000   1.0000
     1.0000   1.0000   1.0000   1.0000   1.0000   1.0000   1.0000   1.0000
     1.0000   1.0000   1.0000   1.0000   1.0000   1.0000   1.0000   1.0000
     1.0000   1.0000   0.0000   0.0000   0.0000   0.0000   0.0000

          k = 0.0833 0.1443-0.3100 (  1796 PWs)   bands (ev):

  -113.5887-113.5887 -67.7913 -67.7913 -67.7874 -67.7874 -67.7871 -67.7871
    -8.1874  -8.1874   3.5452   3.5452   4.0176   4.0176   4.0684   4.0684
     5.4090   5.4090   5.4143   5.4143   7.6272   7.6272   8.9873   8.9873
     9.2765   9.2765  14.1533  14.1533  20.2046  20.2046  22.3954

     occupation numbers 
     1.0000   1.0000   1.0000   1.0000   1.0000   1.0000   1.0000   1.0000
     1.0000   1.0000   1.0000   1.0000   1.0000   1.0000   1.0000   1.0000
     1.0000   1.0000   1.0000   1.0000   1.0000   1.0000   1.0000   1.0000
     1.0000   1.0000   0.0000   0.0000   0.0000   0.0000   0.0000

          k = 0.0833 0.2406 0.0000 (  1799 PWs)   bands (ev):

  -113.5888-113.5886 -67.7928 -67.7895 -67.7884 -67.7880 -67.7875 -67.7870
    -8.4058  -7.7381   3.6473   3.9195   4.0455   4.1196   4.2872   4.3414
     5.1626   5.2666   5.5296   5.6426   5.8127   7.6968   8.1867   8.5928
     9.4892   9.5485  13.0013  17.0852  18.3022  20.3291  22.1586

     occupation numbers 
     1.0000   1.0000   1.0000   1.0000   1.0000   1.0000   1.0000   1.0000
     1.0000   1.0000   1.0000   1.0000   1.0000   1.0000   1.0000   1.0000
     1.0000   1.0000   1.0000   1.0000   1.0000   1.0000   1.0000   1.0000
     1.0000   1.0000   0.0000   0.0000   0.0000   0.0000   0.0000

          k = 0.0833 0.2406 0.0775 (  1796 PWs)   bands (ev):

  -113.5888-113.5886 -67.7927 -67.7896 -67.7884 -67.7879 -67.7875 -67.7870
    -8.3810  -7.7640   3.6246   3.8505   4.0389   4.1006   4.2582   4.3253
     5.1880   5.2819   5.5213   5.6055   6.0438   7.7436   8.1796   8.5689
     9.4598   9.5066  13.1180  16.8069  18.4899  20.3712  22.1841

     occupation numbers 
     1.0000   1.0000   1.0000   1.0000   1.0000   1.0000   1.0000   1.0000
     1.0000   1.0000   1.0000   1.0000   1.0000   1.0000   1.0000   1.0000
     1.0000   1.0000   1.0000   1.0000   1.0000   1.0000   1.0000   1.0000
     1.0000   1.0000   0.0000   0.0000   0.0000   0.0000   0.0000

          k = 0.0833 0.2406 0.1550 (  1795 PWs)   bands (ev):

  -113.5888-113.5886 -67.7923 -67.7901 -67.7883 -67.7879 -67.7874 -67.7871
    -8.3100  -7.8375   3.5653   3.6825   4.0456   4.0820   4.2132   4.2834
     5.2518   5.3166   5.4972   5.5587   6.5274   7.8625   8.1123   8.6043
     9.3201   9.3855  13.4680  16.1994  18.8792  20.4551  22.0947

     occupation numbers 
     1.0000   1.0000   1.0000   1.0000   1.0000   1.0000   1.0000   1.0000
     1.0000   1.0000   1.0000   1.0000   1.0000   1.0000   1.0000   1.0000
     1.0000   1.0000   1.0000   1.0000   1.0000   1.0000   1.0000   1.0000
     1.0000   1.0000   0.0000   0.0000   0.0000   0.0000   0.0000

          k = 0.0833 0.2406 0.2325 (  1797 PWs)   bands (ev):

  -113.5887-113.5887 -67.7919 -67.7907 -67.7881 -67.7879 -67.7874 -67.7872
    -8.2030  -7.9472   3.5016   3.5423   4.0627   4.0842   4.1783   4.2296
     5.3347   5.3622   5.4595   5.4977   7.0482   7.7805   8.2426   8.7550
     9.0303   9.1996  14.0242  15.4704  19.3706  20.3805  21.7952

     occupation numbers 
     1.0000   1.0000   1.0000   1.0000   1.0000   1.0000   1.0000   1.0000
     1.0000   1.0000   1.0000   1.0000   1.0000   1.0000   1.0000   1.0000
     1.0000   1.0000   1.0000   1.0000   1.0000   1.0000   1.0000   1.0000
     1.0000   1.0000   0.0000   0.0000   0.0000   0.0000   0.0000

          k = 0.0833 0.2406-0.3100 (  1796 PWs)   bands (ev):

  -113.5887-113.5887 -67.7913 -67.7913 -67.7879 -67.7879 -67.7873 -67.7873
    -8.0757  -8.0757   3.4830   3.4830   4.0810   4.0810   4.1838   4.1838
     5.4102   5.4102   5.4229   5.4229   7.4754   7.4754   8.6124   8.6124
     8.9848   8.9848  14.7187  14.7187  19.9320  19.9320  21.8453

     occupation numbers 
     1.0000   1.0000   1.0000   1.0000   1.0000   1.0000   1.0000   1.0000
     1.0000   1.0000   1.0000   1.0000   1.0000   1.0000   1.0000   1.0000
     1.0000   1.0000   1.0000   1.0000   1.0000   1.0000   1.0000   1.0000
     1.0000   1.0000   0.0000   0.0000   0.0000   0.0000   0.0000

          k = 0.0833 0.3368 0.0000 (  1797 PWs)   bands (ev):

  -113.5887-113.5886 -67.7924 -67.7897 -67.7891 -67.7886 -67.7879 -67.7871
    -8.2144  -7.6770   3.5584   3.9202   4.0834   4.2478   4.5027   4.5494
     5.1232   5.3087   5.5419   5.6441   5.9370   6.9473   7.7454   8.0218
     9.1917   9.2904  14.0373  17.6907  18.3147  19.3598  21.5476

     occupation numbers 
     1.0000   1.0000   1.0000   1.0000   1.0000   1.0000   1.0000   1.0000
     1.0000   1.0000   1.0000   1.0000   1.0000   1.0000   1.0000   1.0000
     1.0000   1.0000   1.0000   1.0000   1.0000   1.0000   1.0000   1.0000
     1.0000   1.0000   0.0000   0.0000   0.0000   0.0000   0.0000

          k = 0.0833 0.3368 0.0775 (  1794 PWs)   bands (ev):

  -113.5887-113.5886 -67.7923 -67.7899 -67.7890 -67.7885 -67.7878 -67.7871
    -8.1937  -7.6970   3.5357   3.8498   4.0907   4.2319   4.4616   4.4895
     5.1579   5.3268   5.5330   5.6427   6.1224   7.0129   7.7258   8.0436
     9.1887   9.2462  14.0975  17.3329  18.5469  19.4022  21.5758

     occupation numbers 
     1.0000   1.0000   1.0000   1.0000   1.0000   1.0000   1.0000   1.0000
     1.0000   1.0000   1.0000   1.0000   1.0000   1.0000   1.0000   1.0000
     1.0000   1.0000   1.0000   1.0000   1.0000   1.0000   1.0000   1.0000
     1.0000   1.0000   0.0000   0.0000   0.0000   0.0000   0.0000

          k = 0.0833 0.3368 0.1550 (  1796 PWs)   bands (ev):

  -113.5887-113.5886 -67.7922 -67.7904 -67.7889 -67.7884 -67.7878 -67.7872
    -8.1348  -7.7542   3.4802   3.6781   4.1148   4.2065   4.3596   4.4338
     5.2380   5.3573   5.5087   5.6030   6.5067   7.1926   7.6882   8.1631
     9.0807   9.1486  14.3067  16.6881  18.8750  19.5076  21.4898

     occupation numbers 
     1.0000   1.0000   1.0000   1.0000   1.0000   1.0000   1.0000   1.0000
     1.0000   1.0000   1.0000   1.0000   1.0000   1.0000   1.0000   1.0000
     1.0000   1.0000   1.0000   1.0000   1.0000   1.0000   1.0000   1.0000
     1.0000   1.0000   0.0000   0.0000   0.0000   0.0000   0.0000

          k = 0.0833 0.3368 0.2325 (  1796 PWs)   bands (ev):

  -113.5887-113.5886 -67.7918 -67.7909 -67.7887 -67.7884 -67.7877 -67.7874
    -8.0468  -7.8406   3.4295   3.5157   4.1499   4.1975   4.3009   4.3652
     5.3368   5.3927   5.4745   5.5321   6.8276   7.2287   7.9400   8.3715
     8.8507   8.9325  14.7074  15.9756  19.1868  19.5727  21.3823

     occupation numbers 
     1.0000   1.0000   1.0000   1.0000   1.0000   1.0000   1.0000   1.0000
     1.0000   1.0000   1.0000   1.0000   1.0000   1.0000   1.0000   1.0000
     1.0000   1.0000   1.0000   1.0000   1.0000   1.0000   1.0000   1.0000
     1.0000   1.0000   0.0000   0.0000   0.0000   0.0000   0.0000

          k = 0.0833 0.3368-0.3100 (  1794 PWs)   bands (ev):

  -113.5887-113.5887 -67.7914 -67.7914 -67.7885 -67.7885 -67.7875 -67.7875
    -7.9434  -7.9434   3.4311   3.4311   4.1828   4.1828   4.3068   4.3068
     5.4226   5.4226   5.4505   5.4505   7.0613   7.0613   8.4131   8.4131
     8.6703   8.6703  15.2869  15.2869  19.4534  19.4534  21.5694

     occupation numbers 
     1.0000   1.0000   1.0000   1.0000   1.0000   1.0000   1.0000   1.0000
     1.0000   1.0000   1.0000   1.0000   1.0000   1.0000   1.0000   1.0000
     1.0000   1.0000   1.0000   1.0000   1.0000   1.0000   1.0000   1.0000
     1.0000   1.0000   0.0000   0.0000   0.0000   0.0000   0.0000

          k = 0.0833 0.4330 0.0000 (  1790 PWs)   bands (ev):

  -113.5887-113.5886 -67.7920 -67.7900 -67.7897 -67.7891 -67.7882 -67.7872
    -8.0268  -7.6401   3.5492   3.8858   4.1303   4.3821   4.6548   4.6900
     5.1971   5.3590   5.5581   5.7167   5.9366   6.4822   7.3022   7.5456
     8.8281   9.0619  15.0801  17.7265  18.0401  18.9465  21.1820

     occupation numbers 
     1.0000   1.0000   1.0000   1.0000   1.0000   1.0000   1.0000   1.0000
     1.0000   1.0000   1.0000   1.0000   1.0000   1.0000   1.0000   1.0000
     1.0000   1.0000   1.0000   1.0000   1.0000   1.0000   1.0000   1.0000
     1.0000   1.0000   0.0000   0.0000   0.0000   0.0000   0.0000

          k = 0.0833 0.4330 0.0775 (  1796 PWs)   bands (ev):

  -113.5887-113.5886 -67.7920 -67.7903 -67.7896 -67.7890 -67.7881 -67.7873
    -8.0111  -7.6536   3.5231   3.8176   4.1423   4.3640   4.6047   4.6411
     5.2139   5.3876   5.5497   5.7136   6.0182   6.5859   7.3034   7.6145
     8.8562   9.0140  15.0773  17.3838  18.3155  18.9684  21.1219

     occupation numbers 
     1.0000   1.0000   1.0000   1.0000   1.0000   1.0000   1.0000   1.0000
     1.0000   1.0000   1.0000   1.0000   1.0000   1.0000   1.0000   1.0000
     1.0000   1.0000   1.0000   1.0000   1.0000   1.0000   1.0000   1.0000
     1.0000   1.0000   0.0000   0.0000   0.0000   0.0000   0.0000

          k = 0.0833 0.4330 0.1550 (  1794 PWs)   bands (ev):

  -113.5887-113.5886 -67.7920 -67.7907 -67.7894 -67.7889 -67.7880 -67.7874
    -7.9667  -7.6926   3.4610   3.6542   4.1791   4.3335   4.4986   4.5685
     5.2813   5.4184   5.5294   5.6633   6.1924   6.7230   7.4672   7.8024
     8.8110   8.9321  15.1235  16.8551  18.6379  19.0262  20.9961

     occupation numbers 
     1.0000   1.0000   1.0000   1.0000   1.0000   1.0000   1.0000   1.0000
     1.0000   1.0000   1.0000   1.0000   1.0000   1.0000   1.0000   1.0000
     1.0000   1.0000   1.0000   1.0000   1.0000   1.0000   1.0000   1.0000
     1.0000   1.0000   0.0000   0.0000   0.0000   0.0000   0.0000

          k = 0.0833 0.4330 0.2325 (  1797 PWs)   bands (ev):

  -113.5886-113.5886 -67.7918 -67.7911 -67.7891 -67.7889 -67.7879 -67.7875
    -7.9012  -7.7527   3.4062   3.4948   4.2366   4.3180   4.4262   4.4805
     5.3717   5.4408   5.5075   5.5869   6.3666   6.6687   7.8877   8.0844
     8.5933   8.8041  15.3257  16.2750  18.8781  19.0724  21.0205

     occupation numbers 
     1.0000   1.0000   1.0000   1.0000   1.0000   1.0000   1.0000   1.0000
     1.0000   1.0000   1.0000   1.0000   1.0000   1.0000   1.0000   1.0000
     1.0000   1.0000   1.0000   1.0000   1.0000   1.0000   1.0000   1.0000
     1.0000   1.0000   0.0000   0.0000   0.0000   0.0000   0.0000

          k = 0.0833 0.4330-0.3100 (  1802 PWs)   bands (ev):

  -113.5886-113.5886 -67.7916 -67.7916 -67.7890 -67.7890 -67.7877 -67.7877
    -7.8258  -7.8258   3.4081   3.4081   4.2950   4.2950   4.4153   4.4153
     5.4413   5.4413   5.5148   5.5148   6.5294   6.5294   8.2534   8.2534
     8.5112   8.5112  15.7293  15.7293  19.0259  19.0259  21.3578

     occupation numbers 
     1.0000   1.0000   1.0000   1.0000   1.0000   1.0000   1.0000   1.0000
     1.0000   1.0000   1.0000   1.0000   1.0000   1.0000   1.0000   1.0000
     1.0000   1.0000   1.0000   1.0000   1.0000   1.0000   1.0000   1.0000
     1.0000   1.0000   0.0000   0.0000   0.0000   0.0000   0.0000

          k = 0.0833 0.5292 0.0000 (  1806 PWs)   bands (ev):

  -113.5887-113.5886 -67.7917 -67.7903 -67.7901 -67.7896 -67.7883 -67.7874
    -7.8975  -7.6372   3.6087   3.8317   4.1561   4.4801   4.6471   4.7834
     5.2827   5.4127   5.5733   5.6830   5.9894   6.3448   6.9067   7.3908
     8.5267   8.9257  16.0007  17.3049  17.6388  18.9317  20.9274

     occupation numbers 
     1.0000   1.0000   1.0000   1.0000   1.0000   1.0000   1.0000   1.0000
     1.0000   1.0000   1.0000   1.0000   1.0000   1.0000   1.0000   1.0000
     1.0000   1.0000   1.0000   1.0000   1.0000   1.0000   1.0000   1.0000
     1.0000   1.0000   0.0000   0.0000   0.0000   0.0000   0.0000

          k = 0.0833 0.5292 0.0775 (  1799 PWs)   bands (ev):

  -113.5886-113.5886 -67.7917 -67.7905 -67.7899 -67.7894 -67.7883 -67.7874
    -7.8861  -7.6455   3.5771   3.7643   4.1689   4.4626   4.6207   4.7456
     5.3165   5.4254   5.5668   5.6888   5.9739   6.3405   7.0491   7.4746
     8.5752   8.8756  15.8964  17.1218  17.8711  18.9618  20.8242

     occupation numbers 
     1.0000   1.0000   1.0000   1.0000   1.0000   1.0000   1.0000   1.0000
     1.0000   1.0000   1.0000   1.0000   1.0000   1.0000   1.0000   1.0000
     1.0000   1.0000   1.0000   1.0000   1.0000   1.0000   1.0000   1.0000
     1.0000   1.0000   0.0000   0.0000   0.0000   0.0000   0.0000

          k = 0.0833 0.5292 0.1550 (  1801 PWs)   bands (ev):

  -113.5886-113.5886 -67.7919 -67.7910 -67.7897 -67.7892 -67.7882 -67.7874
    -7.8542  -7.6698   3.5000   3.6126   4.2094   4.4344   4.5663   4.6551
     5.3824   5.4475   5.5582   5.6857   5.9800   6.2919   7.3961   7.7242
     8.6040   8.7783  15.7338  16.7923  18.2289  19.0085  20.6732

     occupation numbers 
     1.0000   1.0000   1.0000   1.0000   1.0000   1.0000   1.0000   1.0000
     1.0000   1.0000   1.0000   1.0000   1.0000   1.0000   1.0000   1.0000
     1.0000   1.0000   1.0000   1.0000   1.0000   1.0000   1.0000   1.0000
     1.0000   1.0000   0.0000   0.0000   0.0000   0.0000   0.0000

          k = 0.0833 0.5292 0.2325 (  1795 PWs)   bands (ev):

  -113.5886-113.5886 -67.7919 -67.7914 -67.7893 -67.7890 -67.7880 -67.7876
    -7.8082  -7.7082   3.4252   3.4729   4.2778   4.4115   4.5185   4.5528
     5.4343   5.4615   5.5701   5.6555   6.0363   6.2101   7.7660   8.1104
     8.4092   8.7158  15.7313  16.3734  18.5476  18.9650  20.7668

     occupation numbers 
     1.0000   1.0000   1.0000   1.0000   1.0000   1.0000   1.0000   1.0000
     1.0000   1.0000   1.0000   1.0000   1.0000   1.0000   1.0000   1.0000
     1.0000   1.0000   1.0000   1.0000   1.0000   1.0000   1.0000   1.0000
     1.0000   1.0000   0.0000   0.0000   0.0000   0.0000   0.0000

          k = 0.0833 0.5292-0.3100 (  1794 PWs)   bands (ev):

  -113.5886-113.5886 -67.7917 -67.7917 -67.7891 -67.7891 -67.7878 -67.7878
    -7.7566  -7.7566   3.4066   3.4066   4.3602   4.3602   4.5009   4.5009
     5.4579   5.4579   5.6102   5.6102   6.1197   6.1197   8.1013   8.1013
     8.4985   8.4985  15.9694  15.9694  18.7975  18.7975  21.1940

     occupation numbers 
     1.0000   1.0000   1.0000   1.0000   1.0000   1.0000   1.0000   1.0000
     1.0000   1.0000   1.0000   1.0000   1.0000   1.0000   1.0000   1.0000
     1.0000   1.0000   1.0000   1.0000   1.0000   1.0000   1.0000   1.0000
     1.0000   1.0000   0.0000   0.0000   0.0000   0.0000   0.0000

          k = 0.1667 0.2887 0.0000 (  1787 PWs)   bands (ev):

  -113.5887-113.5886 -67.7925 -67.7896 -67.7889 -67.7886 -67.7877 -67.7871
    -8.2420  -7.6842   3.6307   3.8652   4.1319   4.1753   4.4900   4.5006
     5.1324   5.2854   5.5391   5.6563   5.9243   7.2354   7.5688   8.1282
     9.2365   9.2565  13.9424  17.6756  18.4570  19.6178  21.4340

     occupation numbers 
     1.0000   1.0000   1.0000   1.0000   1.0000   1.0000   1.0000   1.0000
     1.0000   1.0000   1.0000   1.0000   1.0000   1.0000   1.0000   1.0000
     1.0000   1.0000   1.0000   1.0000   1.0000   1.0000   1.0000   1.0000
     1.0000   1.0000   0.0000   0.0000   0.0000   0.0000   0.0000

          k = 0.1667 0.2887 0.0775 (  1798 PWs)   bands (ev):

  -113.5888-113.5886 -67.7924 -67.7899 -67.7889 -67.7885 -67.7878 -67.7872
    -8.2206  -7.7052   3.6051   3.8171   4.1241   4.1528   4.4241   4.4711
     5.1620   5.3124   5.5304   5.6466   6.1204   7.3054   7.5752   8.1102
     9.1849   9.2542  14.0154  17.3549  18.6336  19.6578  21.5884

     occupation numbers 
     1.0000   1.0000   1.0000   1.0000   1.0000   1.0000   1.0000   1.0000
     1.0000   1.0000   1.0000   1.0000   1.0000   1.0000   1.0000   1.0000
     1.0000   1.0000   1.0000   1.0000   1.0000   1.0000   1.0000   1.0000
     1.0000   1.0000   0.0000   0.0000   0.0000   0.0000   0.0000

          k = 0.1667 0.2887 0.1550 (  1804 PWs)   bands (ev):

  -113.5887-113.5886 -67.7922 -67.7903 -67.7887 -67.7885 -67.7877 -67.7873
    -8.1598  -7.7649   3.5412   3.6757   4.1130   4.1277   4.3344   4.4212
     5.2378   5.3507   5.5068   5.6033   6.5371   7.5346   7.5378   8.1421
     9.0395   9.1790  14.2557  16.7180  18.9326  19.7504  21.7797

     occupation numbers 
     1.0000   1.0000   1.0000   1.0000   1.0000   1.0000   1.0000   1.0000
     1.0000   1.0000   1.0000   1.0000   1.0000   1.0000   1.0000   1.0000
     1.0000   1.0000   1.0000   1.0000   1.0000   1.0000   1.0000   1.0000
     1.0000   1.0000   0.0000   0.0000   0.0000   0.0000   0.0000

          k = 0.1667 0.2887 0.2325 (  1795 PWs)   bands (ev):

  -113.5887-113.5886 -67.7918 -67.7909 -67.7885 -67.7884 -67.7876 -67.7875
    -8.0688  -7.8549   3.4777   3.5314   4.1138   4.1276   4.2944   4.3582
     5.3352   5.3889   5.4737   5.5322   6.9116   7.3920   7.9564   8.2990
     8.8273   8.9355  14.6894  15.9967  19.2736  19.7887  21.5228

     occupation numbers 
     1.0000   1.0000   1.0000   1.0000   1.0000   1.0000   1.0000   1.0000
     1.0000   1.0000   1.0000   1.0000   1.0000   1.0000   1.0000   1.0000
     1.0000   1.0000   1.0000   1.0000   1.0000   1.0000   1.0000   1.0000
     1.0000   1.0000   0.0000   0.0000   0.0000   0.0000   0.0000

          k = 0.1667 0.2887-0.3100 (  1794 PWs)   bands (ev):

  -113.5887-113.5887 -67.7914 -67.7913 -67.7884 -67.7884 -67.7876 -67.7876
    -7.9616  -7.9616   3.4633   3.4633   4.1240   4.1240   4.3064   4.3064
     5.4179   5.4179   5.4527   5.4527   7.1831   7.1831   8.4054   8.4054
     8.6379   8.6379  15.2928  15.2928  19.6116  19.6116  21.4187

     occupation numbers 
     1.0000   1.0000   1.0000   1.0000   1.0000   1.0000   1.0000   1.0000
     1.0000   1.0000   1.0000   1.0000   1.0000   1.0000   1.0000   1.0000
     1.0000   1.0000   1.0000   1.0000   1.0000   1.0000   1.0000   1.0000
     1.0000   1.0000   0.0000   0.0000   0.0000   0.0000   0.0000

          k = 0.1667 0.3849 0.0000 (  1784 PWs)   bands (ev):

  -113.5887-113.5886 -67.7920 -67.7899 -67.7894 -67.7890 -67.7881 -67.7874
    -8.0606  -7.6432   3.6553   3.8650   4.1602   4.3021   4.6426   4.6762
     5.1252   5.3120   5.5574   5.7197   5.9912   6.7731   7.1947   7.4988
     8.8906   8.9578  14.9998  17.7679  18.7614  19.0071  21.2422

     occupation numbers 
     1.0000   1.0000   1.0000   1.0000   1.0000   1.0000   1.0000   1.0000
     1.0000   1.0000   1.0000   1.0000   1.0000   1.0000   1.0000   1.0000
     1.0000   1.0000   1.0000   1.0000   1.0000   1.0000   1.0000   1.0000
     1.0000   1.0000   0.0000   0.0000   0.0000   0.0000   0.0000

          k = 0.1667 0.3849 0.0775 (  1789 PWs)   bands (ev):

  -113.5887-113.5886 -67.7921 -67.7901 -67.7893 -67.7889 -67.7881 -67.7874
    -8.0439  -7.6580   3.6259   3.8246   4.1524   4.2789   4.5711   4.6178
     5.1570   5.3620   5.5501   5.7198   6.1034   6.8685   7.2392   7.4959
     8.8448   8.9721  15.0300  17.5573  18.8309  19.0400  21.2851

     occupation numbers 
     1.0000   1.0000   1.0000   1.0000   1.0000   1.0000   1.0000   1.0000
     1.0000   1.0000   1.0000   1.0000   1.0000   1.0000   1.0000   1.0000
     1.0000   1.0000   1.0000   1.0000   1.0000   1.0000   1.0000   1.0000
     1.0000   1.0000   0.0000   0.0000   0.0000   0.0000   0.0000

          k = 0.1667 0.3849 0.1550 (  1796 PWs)   bands (ev):

  -113.5887-113.5886 -67.7920 -67.7906 -67.7891 -67.7888 -67.7880 -67.7876
    -7.9964  -7.7007   3.5545   3.6996   4.1488   4.2354   4.4528   4.5517
     5.2411   5.4089   5.5329   5.6734   6.3414   6.9952   7.4365   7.5939
     8.6858   8.9766  15.1534  17.0644  18.9748  19.1346  21.1189

     occupation numbers 
     1.0000   1.0000   1.0000   1.0000   1.0000   1.0000   1.0000   1.0000
     1.0000   1.0000   1.0000   1.0000   1.0000   1.0000   1.0000   1.0000
     1.0000   1.0000   1.0000   1.0000   1.0000   1.0000   1.0000   1.0000
     1.0000   1.0000   0.0000   0.0000   0.0000   0.0000   0.0000

          k = 0.1667 0.3849 0.2325 (  1796 PWs)   bands (ev):

  -113.5887-113.5886 -67.7918 -67.7911 -67.7889 -67.7887 -67.7879 -67.7877
    -7.9264  -7.7661   3.4882   3.5561   4.1675   4.2106   4.4033   4.4718
     5.3446   5.4331   5.5160   5.5947   6.5588   6.9086   7.7884   7.9202
     8.4659   8.8403  15.4333  16.4676  19.1323  19.2413  20.8980

     occupation numbers 
[...]
     8.5289   8.6016  16.0835  17.6983  18.6757  18.9283  21.3295

     occupation numbers 
     1.0000   1.0000   1.0000   1.0000   1.0000   1.0000   1.0000   1.0000
     1.0000   1.0000   1.0000   1.0000   1.0000   1.0000   1.0000   1.0000
     1.0000   1.0000   1.0000   1.0000   1.0000   1.0000   1.0000   1.0000
     1.0000   1.0000   0.0000   0.0000   0.0000   0.0000   0.0000

          k = 0.2500 0.4330 0.0775 (  1790 PWs)   bands (ev):

  -113.5886-113.5886 -67.7917 -67.7904 -67.7894 -67.7893 -67.7884 -67.7878
    -7.8953  -7.6411   3.8039   3.8241   4.2540   4.2820   4.7004   4.7229
     5.1611   5.3606   5.5766   5.8216   5.9156   6.6243   6.9242   7.1959
     8.4642   8.6556  16.0905  17.6073  18.7036  18.9712  20.9641

     occupation numbers 
     1.0000   1.0000   1.0000   1.0000   1.0000   1.0000   1.0000   1.0000
     1.0000   1.0000   1.0000   1.0000   1.0000   1.0000   1.0000   1.0000
     1.0000   1.0000   1.0000   1.0000   1.0000   1.0000   1.0000   1.0000
     1.0000   1.0000   0.0000   0.0000   0.0000   0.0000   0.0000

          k = 0.2500 0.4330 0.1550 (  1791 PWs)   bands (ev):

  -113.5886-113.5886 -67.7918 -67.7908 -67.7891 -67.7891 -67.7883 -67.7879
    -7.8620  -7.6671   3.7127   3.7461   4.1810   4.2458   4.5803   4.6409
     5.2478   5.4206   5.5773   5.8008   6.0596   6.6646   6.9909   7.5514
     8.2966   8.7468  16.1402  17.3539  18.7850  19.0715  20.4253

     occupation numbers 
     1.0000   1.0000   1.0000   1.0000   1.0000   1.0000   1.0000   1.0000
     1.0000   1.0000   1.0000   1.0000   1.0000   1.0000   1.0000   1.0000
     1.0000   1.0000   1.0000   1.0000   1.0000   1.0000   1.0000   1.0000
     1.0000   1.0000   0.0000   0.0000   0.0000   0.0000   0.0000

          k = 0.2500 0.4330 0.2325 (  1799 PWs)   bands (ev):

  -113.5886-113.5886 -67.7917 -67.7913 -67.7890 -67.7890 -67.7882 -67.7881
    -7.8137  -7.7081   3.6142   3.6442   4.1525   4.2238   4.5282   4.5598
     5.3387   5.4275   5.5980   5.7226   6.2492   6.5636   7.2498   7.7965
     8.2381   8.7362  16.2967  16.9861  18.9142  19.1452  20.0691

     occupation numbers 
     1.0000   1.0000   1.0000   1.0000   1.0000   1.0000   1.0000   1.0000
     1.0000   1.0000   1.0000   1.0000   1.0000   1.0000   1.0000   1.0000
     1.0000   1.0000   1.0000   1.0000   1.0000   1.0000   1.0000   1.0000
     1.0000   1.0000   0.0000   0.0000   0.0000   0.0000   0.0000

          k = 0.2500 0.4330-0.3100 (  1808 PWs)   bands (ev):

  -113.5886-113.5886 -67.7916 -67.7916 -67.7890 -67.7890 -67.7882 -67.7882
    -7.7594  -7.7594   3.5853   3.5853   4.1847   4.1847   4.5199   4.5199
     5.4012   5.4012   5.6484   5.6484   6.4176   6.4176   7.5645   7.5645
     8.5376   8.5376  16.5959  16.5959  19.0686  19.0687  20.1033

     occupation numbers 
     1.0000   1.0000   1.0000   1.0000   1.0000   1.0000   1.0000   1.0000
     1.0000   1.0000   1.0000   1.0000   1.0000   1.0000   1.0000   1.0000
     1.0000   1.0000   1.0000   1.0000   1.0000   1.0000   1.0000   1.0000
     1.0000   1.0000   0.0000   0.0000   0.0000   0.0000   0.0000

          k = 0.2500 0.5292 0.0000 (  1796 PWs)   bands (ev):

  -113.5886-113.5886 -67.7913 -67.7906 -67.7897 -67.7894 -67.7889 -67.7880
    -7.7911  -7.6526   3.7998   4.1171   4.3053   4.3633   4.8055   4.9167
     5.2281   5.2414   5.5031   5.5390   6.0985   6.2001   6.5081   7.4595
     8.1511   8.3523  17.1135  17.6332  18.1840  18.7418  21.0210

     occupation numbers 
     1.0000   1.0000   1.0000   1.0000   1.0000   1.0000   1.0000   1.0000
     1.0000   1.0000   1.0000   1.0000   1.0000   1.0000   1.0000   1.0000
     1.0000   1.0000   1.0000   1.0000   1.0000   1.0000   1.0000   1.0000
     1.0000   1.0000   0.0000   0.0000   0.0000   0.0000   0.0000

          k = 0.2500 0.5292 0.0775 (  1791 PWs)   bands (ev):

  -113.5886-113.5886 -67.7914 -67.7907 -67.7896 -67.7892 -67.7888 -67.7881
    -7.7841  -7.6560   3.7993   4.0534   4.2106   4.3787   4.7629   4.8320
     5.2168   5.3382   5.5503   5.5743   6.0871   6.2839   6.4850   7.5793
     8.1378   8.3759  17.0749  17.6473  18.2134  18.7908  20.6409

     occupation numbers 
     1.0000   1.0000   1.0000   1.0000   1.0000   1.0000   1.0000   1.0000
     1.0000   1.0000   1.0000   1.0000   1.0000   1.0000   1.0000   1.0000
     1.0000   1.0000   1.0000   1.0000   1.0000   1.0000   1.0000   1.0000
     1.0000   1.0000   0.0000   0.0000   0.0000   0.0000   0.0000

          k = 0.2500 0.5292 0.1550 (  1797 PWs)   bands (ev):

  -113.5886-113.5886 -67.7916 -67.7911 -67.7894 -67.7890 -67.7886 -67.7882
    -7.7648  -7.6666   3.7753   3.9052   4.0902   4.3405   4.6938   4.7242
     5.2638   5.3672   5.6136   5.7306   6.0439   6.3533   6.5882   7.8084
     8.0487   8.5101  17.0247  17.6081  18.3211  18.9375  19.9187

     occupation numbers 
     1.0000   1.0000   1.0000   1.0000   1.0000   1.0000   1.0000   1.0000
     1.0000   1.0000   1.0000   1.0000   1.0000   1.0000   1.0000   1.0000
     1.0000   1.0000   1.0000   1.0000   1.0000   1.0000   1.0000   1.0000
     1.0000   1.0000   0.0000   0.0000   0.0000   0.0000   0.0000

          k = 0.2500 0.5292 0.2325 (  1805 PWs)   bands (ev):

  -113.5886-113.5886 -67.7917 -67.7915 -67.7892 -67.7889 -67.7885 -67.7883
    -7.7379  -7.6847   3.7112   3.7578   4.0804   4.2520   4.6520   4.6646
     5.3056   5.3583   5.7028   5.8276   6.0437   6.2592   6.9088   7.6141
     8.3056   8.6153  17.0598  17.4469  18.5140  19.1475  19.3075

     occupation numbers 
     1.0000   1.0000   1.0000   1.0000   1.0000   1.0000   1.0000   1.0000
     1.0000   1.0000   1.0000   1.0000   1.0000   1.0000   1.0000   1.0000
     1.0000   1.0000   1.0000   1.0000   1.0000   1.0000   1.0000   1.0000
     1.0000   1.0000   0.0000   0.0000   0.0000   0.0000   0.0000

          k = 0.2500 0.5292-0.3100 (  1800 PWs)   bands (ev):

  -113.5886-113.5886 -67.7916 -67.7916 -67.7890 -67.7890 -67.7884 -67.7884
    -7.7095  -7.7095   3.6875   3.6875   4.1518   4.1518   4.6432   4.6432
     5.3364   5.3364   5.7888   5.7888   6.1432   6.1432   7.2689   7.2689
     8.5531   8.5531  17.2216  17.2216  18.8012  18.8013  19.5633

     occupation numbers 
     1.0000   1.0000   1.0000   1.0000   1.0000   1.0000   1.0000   1.0000
     1.0000   1.0000   1.0000   1.0000   1.0000   1.0000   1.0000   1.0000
     1.0000   1.0000   1.0000   1.0000   1.0000   1.0000   1.0000   1.0000
     1.0000   1.0000   0.0000   0.0000   0.0000   0.0000   0.0000

          k = 0.3333 0.5774 0.0000 (  1779 PWs)   bands (ev):

  -113.5886-113.5886 -67.7909 -67.7909 -67.7894 -67.7891 -67.7891 -67.7883
    -7.7047  -7.7047   3.8184   4.2461   4.2461   4.5520   4.9417   4.9417
     5.1669   5.3175   5.3175   5.3339   5.9933   6.3161   6.3161   7.8761
     7.8761   8.0596  17.6166  18.0496  18.0496  18.2661  21.0663

     occupation numbers 
     1.0000   1.0000   1.0000   1.0000   1.0000   1.0000   1.0000   1.0000
     1.0000   1.0000   1.0000   1.0000   1.0000   1.0000   1.0000   1.0000
     1.0000   1.0000   1.0000   1.0000   1.0000   1.0000   1.0000   1.0000
     1.0000   1.0000   0.0000   0.0000   0.0000   0.0000   0.0000

          k = 0.3333 0.5774 0.0775 (  1782 PWs)   bands (ev):

  -113.5886-113.5886 -67.7910 -67.7910 -67.7894 -67.7890 -67.7890 -67.7883
    -7.7028  -7.7028   3.8341   4.1743   4.1743   4.4929   4.8629   4.8629
     5.1798   5.3288   5.4424   5.4424   6.0877   6.2870   6.2870   7.9796
     7.9796   7.9799  17.6640  18.0639  18.0639  18.2556  20.7241

     occupation numbers 
     1.0000   1.0000   1.0000   1.0000   1.0000   1.0000   1.0000   1.0000
     1.0000   1.0000   1.0000   1.0000   1.0000   1.0000   1.0000   1.0000
     1.0000   1.0000   1.0000   1.0000   1.0000   1.0000   1.0000   1.0000
     1.0000   1.0000   0.0000   0.0000   0.0000   0.0000   0.0000

          k = 0.3333 0.5774 0.1550 (  1794 PWs)   bands (ev):

  -113.5886-113.5886 -67.7913 -67.7913 -67.7893 -67.7888 -67.7888 -67.7884
    -7.6982  -7.6982   3.8816   4.0091   4.0091   4.3581   4.7793   4.7793
     5.2064   5.3144   5.6384   5.6384   6.2168   6.2168   6.3362   7.7572
     8.2239   8.2239  17.7845  18.1108  18.1108  18.2220  20.0451

     occupation numbers 
     1.0000   1.0000   1.0000   1.0000   1.0000   1.0000   1.0000   1.0000
     1.0000   1.0000   1.0000   1.0000   1.0000   1.0000   1.0000   1.0000
     1.0000   1.0000   1.0000   1.0000   1.0000   1.0000   1.0000   1.0000
     1.0000   1.0000   0.0000   0.0000   0.0000   0.0000   0.0000

          k = 0.3333 0.5774 0.2325 (  1815 PWs)   bands (ev):

  -113.5886-113.5886 -67.7916 -67.7916 -67.7892 -67.7887 -67.7887 -67.7887
    -7.6935  -7.6935   3.8595   3.8595   3.9607   4.2072   4.7394   4.7394
     5.2358   5.2923   5.7989   5.7989   6.1334   6.1334   6.6768   7.4332
     8.4636   8.4636  17.9308  18.1595  18.1935  18.1935  19.4434

     occupation numbers 
     1.0000   1.0000   1.0000   1.0000   1.0000   1.0000   1.0000   1.0000
     1.0000   1.0000   1.0000   1.0000   1.0000   1.0000   1.0000   1.0000
     1.0000   1.0000   1.0000   1.0000   1.0000   1.0000   1.0000   1.0000
     1.0000   1.0000   0.0000   0.0000   0.0000   0.0000   0.0000

          k = 0.3333 0.5774-0.3100 (  1824 PWs)   bands (ev):

  -113.5886-113.5886 -67.7917 -67.7917 -67.7890 -67.7890 -67.7887 -67.7887
    -7.6916  -7.6916   3.8018   3.8018   4.0707   4.0707   4.7279   4.7279
     5.2652   5.2652   5.8755   5.8755   6.0819   6.0819   7.0574   7.0574
     8.5624   8.5624  18.0620  18.0620  18.2537  18.2538  19.1871

     occupation numbers 
     1.0000   1.0000   1.0000   1.0000   1.0000   1.0000   1.0000   1.0000
     1.0000   1.0000   1.0000   1.0000   1.0000   1.0000   1.0000   1.0000
     1.0000   1.0000   1.0000   1.0000   1.0000   1.0000   1.0000   1.0000
     1.0000   1.0000   0.0000   0.0000   0.0000   0.0000   0.0000

     the Fermi energy is    10.5686 ev

     WARNING: integrated charge=    52.00002609, expected=    52.00000000

!    total energy              =   -1006.55419694 Ry
     estimated scf accuracy    <          3.8E-09 Ry
     smearing contrib. (-TS)   =       0.00000028 Ry
     internal energy E=F+TS    =   -1006.55419721 Ry

     The total energy is F=E-TS. E is the sum of the following terms:
     one-electron contribution =    -786.47690567 Ry
     hartree contribution      =     417.14816549 Ry
     xc contribution           =     -99.66118584 Ry
     ewald contribution        =    -518.54133724 Ry
     one-center paw contrib.   =     -19.02293395 Ry
      -> PAW hartree energy AE =      53.71169030 Ry
      -> PAW hartree energy PS =     -53.45452701 Ry
      -> PAW xc energy AE      =     -33.56177603 Ry
      -> PAW xc energy PS      =      14.28167880 Ry
      -> total E_H with PAW    =     417.40532877 Ry
      -> total E_XC with PAW   =    -118.94128307 Ry

     convergence has been achieved in  10 iterations

     Forces acting on atoms (cartesian axes, Ry/au):

     atom    1 type  2   force =    -0.00000000   -0.00000000    0.00000567
     atom    2 type  2   force =     0.00000000    0.00000000    0.00000567
     atom    3 type  1   force =     0.00000000    0.00000000   -0.00000567
     atom    4 type  1   force =    -0.00000000   -0.00000000   -0.00000567
     The non-local contrib.  to forces
     atom    1 type  2   force =     0.00000000    0.00000000   -0.01336065
     atom    2 type  2   force =     0.00000000   -0.00000000   -0.01336065
     atom    3 type  1   force =     0.00000000    0.00000000    0.00360666
     atom    4 type  1   force =    -0.00000000   -0.00000000    0.00360666
     The ionic contribution  to forces
     atom    1 type  2   force =    -0.00000064    0.00000037    0.08724301
     atom    2 type  2   force =     0.00000064   -0.00000037    0.08724301
     atom    3 type  1   force =    -0.00000055    0.00000032   -0.08724301
     atom    4 type  1   force =     0.00000055   -0.00000032   -0.08724301
     The local contribution  to forces
     atom    1 type  2   force =    -0.00000946    0.00000546   -0.07387726
     atom    2 type  2   force =     0.00002837   -0.00001638   -0.07387786
     atom    3 type  1   force =    -0.00000055    0.00000032    0.08369224
     atom    4 type  1   force =     0.00000164   -0.00000095    0.08369326
     The core correction contribution to forces
     atom    1 type  2   force =     0.00000000    0.00000000    0.00000000
     atom    2 type  2   force =     0.00000000    0.00000000    0.00000000
     atom    3 type  1   force =    -0.00000000    0.00000000   -0.00005749
     atom    4 type  1   force =     0.00000000   -0.00000000   -0.00005749
     The Hubbard contrib.    to forces
     atom    1 type  2   force =     0.00000000    0.00000000    0.00000000
     atom    2 type  2   force =     0.00000000    0.00000000    0.00000000
     atom    3 type  1   force =     0.00000000    0.00000000    0.00000000
     atom    4 type  1   force =     0.00000000    0.00000000    0.00000000
     The SCF correction term to forces
     atom    1 type  2   force =    -0.00000000    0.00000000    0.00000326
     atom    2 type  2   force =     0.00000000   -0.00000000    0.00000326
     atom    3 type  1   force =    -0.00000000    0.00000000   -0.00000219
     atom    4 type  1   force =     0.00000000   -0.00000000   -0.00000219

     Total force =     0.000011     Total SCF correction =     0.000006
     SCF correction compared to forces is large: reduce conv_thr to get better values


     Computing stress (Cartesian axis) and pressure

          total   stress  (Ry/bohr**3)                   (kbar)     P=      160.50
   0.00109108   0.00000000  -0.00000000          160.50        0.00       -0.00
   0.00000000   0.00109108  -0.00000000            0.00      160.50       -0.00
  -0.00000000  -0.00000000   0.00109094           -0.00       -0.00      160.48

     kinetic stress (kbar)  37321.61      0.00      0.00
                                0.00  37321.61      0.00
                                0.00      0.00  37354.14

     local   stress (kbar)  -2873.10     -0.00      0.00
                               -0.00  -2873.10     -0.00
                                0.00     -0.00  -7381.98

     nonloc. stress (kbar)   -735.40      0.00      0.00
                                0.00   -735.40     -0.00
                               -0.00      0.00   -749.97

     hartree stress (kbar)  67236.01     -0.00      0.00
                               -0.00  67236.01      0.00
                                0.00      0.00  69368.72

     exc-cor stress (kbar) -15124.76      0.00     -0.00
                                0.00 -15124.76      0.00
                               -0.00      0.00 -15124.87

     corecor stress (kbar)   -415.48     -0.00      0.00
                               -0.00   -415.48     -0.00
                                0.00     -0.00   -415.50

     ewald   stress (kbar) -85248.38      0.00      0.00
                                0.00 -85248.38      0.00
                                0.00      0.00 -82890.07

     hubbard stress (kbar)      0.00      0.00      0.00
                                0.00      0.00      0.00
                                0.00      0.00      0.00

     DFT-D   stress (kbar)      0.00      0.00      0.00
                                0.00      0.00      0.00
                                0.00      0.00      0.00

     XDM     stress (kbar)      0.00      0.00      0.00
                                0.00      0.00      0.00
                                0.00      0.00      0.00

     dft-nl  stress (kbar)      0.00      0.00      0.00
                                0.00      0.00      0.00
                                0.00      0.00      0.00

     TS-vdW  stress (kbar)      0.00      0.00      0.00
                                0.00      0.00      0.00
                                0.00      0.00      0.00

     MDB     stress (kbar)      0.00      0.00      0.00
                                0.00      0.00      0.00
                                0.00      0.00      0.00

     3D-RISM stress (kbar)      0.00      0.00      0.00
                                0.00      0.00      0.00
                                0.00      0.00      0.00


     Writing all to output data dir ./temp_hexag/aiida.save/ :
     XML data file, charge density, pseudopotentials, collected wavefunctions

     init_run     :    141.35s CPU      6.55s WALL (       1 calls)
     electrons    :   5011.72s CPU    230.18s WALL (       1 calls)
     forces       :     69.35s CPU      3.01s WALL (       1 calls)
     stress       :     44.74s CPU      2.45s WALL (       1 calls)

     Called by init_run:
     wfcinit      :    137.65s CPU      6.13s WALL (       1 calls)
     wfcinit:atom :      2.18s CPU      0.08s WALL (      95 calls)
     wfcinit:wfcr :    130.51s CPU      5.79s WALL (      95 calls)
     potinit      :      0.87s CPU      0.06s WALL (       1 calls)
     hinit0       :      1.40s CPU      0.23s WALL (       1 calls)

     Called by electrons:
     c_bands      :   4156.71s CPU    192.78s WALL (      10 calls)
     sum_band     :    831.22s CPU     35.63s WALL (      10 calls)
     v_of_rho     :      5.44s CPU      0.23s WALL (      11 calls)
     v_h          :      1.01s CPU      0.04s WALL (      11 calls)
     v_xc         :      5.18s CPU      0.23s WALL (      13 calls)
     newd         :     11.39s CPU      1.13s WALL (      11 calls)
     PAW_pot      :      7.24s CPU      0.32s WALL (      11 calls)
     mix_rho      :      0.67s CPU      0.05s WALL (      10 calls)

     Called by c_bands:
     init_us_2    :     34.68s CPU      1.68s WALL (    2185 calls)
     cegterg      :   4089.68s CPU    189.18s WALL (     950 calls)

     Called by sum_band:
     sum_band:wei :      0.22s CPU      0.02s WALL (      10 calls)
     sum_band:loo :    825.81s CPU     34.52s WALL (      10 calls)
     sum_band:buf :      2.39s CPU      0.10s WALL (     950 calls)
     sum_band:ini :     19.77s CPU      0.61s WALL (     950 calls)
     sum_band:cal :     93.18s CPU      3.86s WALL (     950 calls)
     sum_band:bec :     33.59s CPU      1.44s WALL (     950 calls)
     addusdens    :      4.65s CPU      1.00s WALL (      10 calls)
                                        0.00s GPU  (      10 calls)
     addusd:skk   :      0.23s CPU      0.00s WALL (      20 calls)
                                        0.00s GPU  (      20 calls)

     Called by *egterg:
     cdiaghg      :     39.07s CPU      2.49s WALL (    3251 calls)
     cegterg:over :    280.12s CPU     10.96s WALL (    2301 calls)
     cegterg:upda :    110.27s CPU      7.91s WALL (    2301 calls)
     cegterg:last :     83.61s CPU     11.90s WALL (    1848 calls)
     h_psi        :   3311.08s CPU    141.79s WALL (    3346 calls)
     s_psi        :    199.49s CPU     10.56s WALL (    3346 calls)
     g_psi        :     18.11s CPU      1.09s WALL (    2301 calls)

     Called by h_psi:
     h_psi:calbec :    236.95s CPU      9.68s WALL (    3346 calls)
     vloc_psi     :   2766.27s CPU    120.15s WALL (    3346 calls)
     add_vuspsi   :    274.28s CPU     10.30s WALL (    3346 calls)

     General routines
     calbec       :    371.76s CPU     15.38s WALL (    4771 calls)
     fft          :      4.10s CPU      0.22s WALL (     166 calls)
     ffts         :      0.02s CPU      0.01s WALL (      21 calls)
     fftw         :   1026.08s CPU     46.53s WALL (  174234 calls)
     interpolate  :      0.47s CPU      0.02s WALL (      11 calls)

     Parallel routines

     PAW routines
     PAW_pot      :      7.24s CPU      0.32s WALL (      11 calls)
     PAW_symme    :      0.00s CPU      0.00s WALL (      21 calls)

     PWSCF        :      1h28m CPU   4m 5.27s WALL


   This run was terminated on:   0: 5:58  12Jun2024            

=------------------------------------------------------------------------------=
   JOB DONE.
=------------------------------------------------------------------------------=
