
     Program PWSCF v.7.3.1 starts on 14Jun2024 at 19:52:32 

     This program is part of the open-source Quantum ESPRESSO suite
     for quantum simulation of materials; please cite
         "P. Giannozzi et al., J. Phys.:Condens. Matter 21 395502 (2009);
         "P. Giannozzi et al., J. Phys.:Condens. Matter 29 465901 (2017);
         "P. Giannozzi et al., J. Chem. Phys. 152 154105 (2020);
          URL http://www.quantum-espresso.org", 
     in publications or presentations arising from this work. More details at
     http://www.quantum-espresso.org/quote

     Parallel version (MPI & OpenMP), running on      24 processor cores
     Number of MPI processes:                 1
     Threads/MPI process:                    24

     MPI processes distributed on     1 nodes
     5501 MiB available memory on the printing compute node when the environment starts

     Waiting for input...
     Reading input from standard input

     Current dimensions of program PWSCF are:
     Max number of different atomic species (ntypx) = 10
     Max number of k-points (npk) =  40000
     Max angular momentum in pseudopotentials (lmaxx) =  4
     file O.pbe-n-kjpaw_psl.0.1.UPF: wavefunction(s)  2P renormalized
     Message from routine setup:
     using ibrav=0 with symmetry is DISCOURAGED, use correct ibrav instead

     Subspace diagonalization in iterative solution of the eigenvalue problem:
     a serial algorithm will be used


     G-vector sticks info
     --------------------
     sticks:   dense  smooth     PW     G-vecs:    dense   smooth      PW
     Sum        1039     511    151               432659   152803   25137

     Using Slab Decomposition



     bravais-lattice index     =            0
     lattice parameter (alat)  =       6.1177  a.u.
     unit-cell volume          =    3198.5179 (a.u.)^3
     number of atoms/cell      =            5
     number of atomic types    =            3
     number of electrons       =        53.00
     number of Kohn-Sham states=           32
     kinetic-energy cutoff     =      50.0000  Ry
     charge density cutoff     =     400.0000  Ry
     scf convergence threshold =      2.0E-08
     mixing beta               =       0.4000
     number of iterations used =            8  plain     mixing
     Exchange-correlation= PBE
                           (   1   4   3   4   0   0   0)

     celldm(1)=   6.117707  celldm(2)=   0.000000  celldm(3)=   0.000000
     celldm(4)=   0.000000  celldm(5)=   0.000000  celldm(6)=   0.000000

     crystal axes: (cart. coord. in units of alat)
               a(1) = (   1.000000   0.000000   0.000000 )  
               a(2) = (  -0.500000   0.866025   0.000000 )  
               a(3) = (   0.000000   0.000000  16.130661 )  

     reciprocal axes: (cart. coord. in units 2 pi/alat)
               b(1) = (  1.000000  0.577350 -0.000000 )  
               b(2) = (  0.000000  1.154701  0.000000 )  
               b(3) = (  0.000000 -0.000000  0.061994 )  


     PseudoPot. # 1 for O  read from file:
     ../SSSP_1.3.0_PBE_efficiency/O.pbe-n-kjpaw_psl.0.1.UPF
     MD5 check sum: 0234752ac141de4415c5fc33072bef88
     Pseudo is Projector augmented-wave + core cor, Zval =  6.0
     Generated using "atomic" code by A. Dal Corso  v.5.0.99 svn rev. 10869
     Shape of augmentation charge: BESSEL
     Using radial grid of 1095 points,  4 beta functions with: 
                l(1) =   0
                l(2) =   0
                l(3) =   1
                l(4) =   1
     Q(r) pseudized with 0 coefficients 


     PseudoPot. # 2 for Zn read from file:
     ../SSSP_1.3.0_PBE_efficiency/Zn_pbe_v1.uspp.F.UPF
     MD5 check sum: df62231357ef9e81f77b2b3087fa5675
     Pseudo is Ultrasoft, Zval = 20.0
     Generated by new atomic code, or converted to UPF format
     Using radial grid of  943 points,  6 beta functions with: 
                l(1) =   0
                l(2) =   0
                l(3) =   1
                l(4) =   1
                l(5) =   2
                l(6) =   2
     Q(r) pseudized with  8 coefficients,  rinner =    1.100   1.100   1.100
                                                       1.100   1.100

     PseudoPot. # 3 for H  read from file:
     ../SSSP_1.3.0_PBE_efficiency/H.pbe-rrkjus_psl.1.0.0.UPF
     MD5 check sum: f52b6d4d1c606e5624b1dc7b2218f220
     Pseudo is Ultrasoft, Zval =  1.0
     Generated using "atomic" code by A. Dal Corso  v.5.1
     Using radial grid of  929 points,  2 beta functions with: 
                l(1) =   0
                l(2) =   0
     Q(r) pseudized with 0 coefficients 


     atomic species   valence    mass     pseudopotential
     O                 6.00    15.99940     O ( 1.00)
     Zn               20.00    65.38000     Zn( 1.00)
     H                 1.00     1.00794     H ( 1.00)

      6 Sym. Ops. (no inversion) found


                                    s                        frac. trans.

      isym =  1     identity                                     

 cryst.   s( 1) = (     1          0          0      )
                  (     0          1          0      )
                  (     0          0          1      )

 cart.    s( 1) = (  1.0000000  0.0000000  0.0000000 )
                  (  0.0000000  1.0000000  0.0000000 )
                  (  0.0000000  0.0000000  1.0000000 )


      isym =  2     120 deg rotation - cryst. axis [0,0,1]       

 cryst.   s( 2) = (     0          1          0      )
                  (    -1         -1          0      )
                  (     0          0          1      )

 cart.    s( 2) = ( -0.5000000 -0.8660254  0.0000000 )
                  (  0.8660254 -0.5000000  0.0000000 )
                  (  0.0000000  0.0000000  1.0000000 )


      isym =  3     120 deg rotation - cryst. axis [0,0,-1]      

 cryst.   s( 3) = (    -1         -1          0      )
                  (     1          0          0      )
                  (     0          0          1      )

 cart.    s( 3) = ( -0.5000000  0.8660254  0.0000000 )
                  ( -0.8660254 -0.5000000  0.0000000 )
                  (  0.0000000  0.0000000  1.0000000 )


      isym =  4     inv. 180 deg rotation - cart. axis [1,0,0]   

 cryst.   s( 4) = (    -1          0          0      )
                  (     1          1          0      )
                  (     0          0          1      )

 cart.    s( 4) = ( -1.0000000  0.0000000  0.0000000 )
                  (  0.0000000  1.0000000  0.0000000 )
                  (  0.0000000  0.0000000  1.0000000 )


      isym =  5     inv. 180 deg rotation - cryst. axis [0,1,0]  

 cryst.   s( 5) = (     1          1          0      )
                  (     0         -1          0      )
                  (     0          0          1      )

 cart.    s( 5) = (  0.5000000  0.8660254  0.0000000 )
                  (  0.8660254 -0.5000000  0.0000000 )
                  (  0.0000000  0.0000000  1.0000000 )


      isym =  6     inv. 180 deg rotation - cryst. axis [1,1,0]  

 cryst.   s( 6) = (     0         -1          0      )
                  (    -1          0          0      )
                  (     0          0          1      )

 cart.    s( 6) = (  0.5000000 -0.8660254  0.0000000 )
                  ( -0.8660254 -0.5000000  0.0000000 )
                  (  0.0000000  0.0000000  1.0000000 )


   Cartesian axes

     site n.     atom                  positions (alat units)
         1        Zn     tau(   1) = (   0.5000000   0.2886751   0.8074875  )
         2        Zn     tau(   2) = (  -0.0000000   0.5773503   0.0009545  )
         3        O      tau(   3) = (   0.5000000   0.2886751   1.4190438  )
         4        O      tau(   4) = (  -0.0000000   0.5773503   0.6125107  )
         5        H      tau(   5) = (   0.5000000   0.2886751   1.8550261  )

   Crystallographic axes

     site n.     atom                  positions (cryst. coord.)
         1        Zn     tau(   1) = (  0.6666667  0.3333333  0.0500592  )
         2        Zn     tau(   2) = (  0.3333333  0.6666667  0.0000592  )
         3        O      tau(   3) = (  0.6666667  0.3333333  0.0879718  )
         4        O      tau(   4) = (  0.3333333  0.6666667  0.0379718  )
         5        H      tau(   5) = (  0.6666667  0.3333333  0.1150000  )

     number of k points=    19  Marzari-Vanderbilt smearing, width (Ry)=  0.0147
                       cart. coord. in units 2pi/alat
        k(    1) = (   0.0000000   0.0000000   0.0000000), wk =   0.0138889
        k(    2) = (   0.0000000   0.0962250   0.0000000), wk =   0.0833333
        k(    3) = (   0.0000000   0.1924501   0.0000000), wk =   0.0833333
        k(    4) = (   0.0000000   0.2886751   0.0000000), wk =   0.0833333
        k(    5) = (   0.0000000   0.3849002   0.0000000), wk =   0.0833333
        k(    6) = (   0.0000000   0.4811252   0.0000000), wk =   0.0833333
        k(    7) = (   0.0000000  -0.5773503   0.0000000), wk =   0.0416667
        k(    8) = (   0.0833333   0.1443376   0.0000000), wk =   0.0833333
        k(    9) = (   0.0833333   0.2405626   0.0000000), wk =   0.1666667
        k(   10) = (   0.0833333   0.3367877   0.0000000), wk =   0.1666667
        k(   11) = (   0.0833333   0.4330127   0.0000000), wk =   0.1666667
        k(   12) = (   0.0833333   0.5292377   0.0000000), wk =   0.1666667
        k(   13) = (   0.1666667   0.2886751   0.0000000), wk =   0.0833333
        k(   14) = (   0.1666667   0.3849002   0.0000000), wk =   0.1666667
        k(   15) = (   0.1666667   0.4811252   0.0000000), wk =   0.1666667
        k(   16) = (   0.1666667   0.5773503   0.0000000), wk =   0.0833333
        k(   17) = (   0.2500000   0.4330127   0.0000000), wk =   0.0833333
        k(   18) = (   0.2500000   0.5292377   0.0000000), wk =   0.1666667
        k(   19) = (   0.3333333   0.5773503   0.0000000), wk =   0.0277778

                       cryst. coord.
        k(    1) = (   0.0000000   0.0000000   0.0000000), wk =   0.0138889
        k(    2) = (   0.0000000   0.0833333   0.0000000), wk =   0.0833333
        k(    3) = (   0.0000000   0.1666667   0.0000000), wk =   0.0833333
        k(    4) = (   0.0000000   0.2500000   0.0000000), wk =   0.0833333
        k(    5) = (   0.0000000   0.3333333   0.0000000), wk =   0.0833333
        k(    6) = (   0.0000000   0.4166667   0.0000000), wk =   0.0833333
        k(    7) = (   0.0000000  -0.5000000   0.0000000), wk =   0.0416667
        k(    8) = (   0.0833333   0.0833333   0.0000000), wk =   0.0833333
        k(    9) = (   0.0833333   0.1666667   0.0000000), wk =   0.1666667
        k(   10) = (   0.0833333   0.2500000   0.0000000), wk =   0.1666667
        k(   11) = (   0.0833333   0.3333333   0.0000000), wk =   0.1666667
        k(   12) = (   0.0833333   0.4166667   0.0000000), wk =   0.1666667
        k(   13) = (   0.1666667   0.1666667   0.0000000), wk =   0.0833333
        k(   14) = (   0.1666667   0.2500000   0.0000000), wk =   0.1666667
        k(   15) = (   0.1666667   0.3333333   0.0000000), wk =   0.1666667
        k(   16) = (   0.1666667   0.4166667   0.0000000), wk =   0.0833333
        k(   17) = (   0.2500000   0.2500000   0.0000000), wk =   0.0833333
        k(   18) = (   0.2500000   0.3333333   0.0000000), wk =   0.1666667
        k(   19) = (   0.3333333   0.3333333   0.0000000), wk =   0.0277778

     Dense  grid:   432659 G-vectors     FFT dimensions: (  40,  40, 640)

     Smooth grid:   152803 G-vectors     FFT dimensions: (  27,  27, 450)

     Dynamical RAM for                 wfc:       9.32 MB

     Dynamical RAM for     wfc (w. buffer):     186.48 MB

     Dynamical RAM for           str. fact:      19.81 MB

     Dynamical RAM for           local pot:       0.00 MB

     Dynamical RAM for          nlocal pot:      15.73 MB

     Dynamical RAM for                qrad:       4.82 MB

     Dynamical RAM for          rho,v,vnew:      43.24 MB

     Dynamical RAM for               rhoin:      14.41 MB

     Dynamical RAM for            rho*nmix:     105.63 MB

     Dynamical RAM for           G-vectors:      25.92 MB

     Dynamical RAM for          h,s,v(r/c):       0.19 MB

     Dynamical RAM for          <psi|beta>:       0.03 MB

     Dynamical RAM for                 psi:      18.65 MB

     Dynamical RAM for                hpsi:      18.65 MB

     Dynamical RAM for                spsi:      18.65 MB

     Dynamical RAM for      wfcinit/wfcrot:      20.43 MB

     Dynamical RAM for           addusdens:    1241.15 MB

     Dynamical RAM for          addusforce:    1257.66 MB

     Dynamical RAM for         addusstress:    1326.97 MB

     Estimated static dynamical RAM per process >     375.89 MB

     Estimated max dynamical RAM per process >       1.77 GB

     Initial potential from superposition of free atoms

     starting charge      52.9997, renormalised to      53.0000

     negative rho (up, down):  3.407E-04 0.000E+00
     Starting wfcs are   35 randomized atomic wfcs
     Checking if some PAW data can be deallocated... 

     total cpu time spent up to now is       14.2 secs

     Self-consistent Calculation

     iteration #  1     ecut=    50.00 Ry     beta= 0.40
     Davidson diagonalization with overlap

---- Real-time Memory Report at c_bands before calling an iterative solver
          1408 MiB given to the printing process from OS
             0 MiB allocation reported by mallinfo(arena+hblkhd)
          5124 MiB available memory on the node where the printing process lives
------------------
     ethr =  1.00E-02,  avg # of iterations =  4.6

     negative rho (up, down):  1.923E-04 0.000E+00

     total cpu time spent up to now is       46.3 secs

     total energy              =   -1006.51508468 Ry
     estimated scf accuracy    <       2.04768667 Ry

     iteration #  2     ecut=    50.00 Ry     beta= 0.40
     Davidson diagonalization with overlap

---- Real-time Memory Report at c_bands before calling an iterative solver
          1680 MiB given to the printing process from OS
             0 MiB allocation reported by mallinfo(arena+hblkhd)
          5058 MiB available memory on the node where the printing process lives
------------------
     ethr =  3.86E-03,  avg # of iterations =  8.7

     negative rho (up, down):  3.172E-04 0.000E+00

     total cpu time spent up to now is       92.4 secs

     total energy              =   -1002.72465229 Ry
     estimated scf accuracy    <     121.47560015 Ry

     iteration #  3     ecut=    50.00 Ry     beta= 0.40
     Davidson diagonalization with overlap

---- Real-time Memory Report at c_bands before calling an iterative solver
          1685 MiB given to the printing process from OS
             0 MiB allocation reported by mallinfo(arena+hblkhd)
          5046 MiB available memory on the node where the printing process lives
------------------
     ethr =  3.86E-03,  avg # of iterations =  8.3

     negative rho (up, down):  2.057E-04 0.000E+00

     total cpu time spent up to now is      139.0 secs

     total energy              =   -1007.20882680 Ry
     estimated scf accuracy    <       2.12670182 Ry

     iteration #  4     ecut=    50.00 Ry     beta= 0.40
     Davidson diagonalization with overlap

---- Real-time Memory Report at c_bands before calling an iterative solver
          1690 MiB given to the printing process from OS
             0 MiB allocation reported by mallinfo(arena+hblkhd)
          5032 MiB available memory on the node where the printing process lives
------------------
     ethr =  3.86E-03,  avg # of iterations =  3.2

     negative rho (up, down):  1.765E-04 0.000E+00

     total cpu time spent up to now is      169.7 secs

     total energy              =   -1007.36768962 Ry
     estimated scf accuracy    <       0.15712593 Ry

     iteration #  5     ecut=    50.00 Ry     beta= 0.40
     Davidson diagonalization with overlap

---- Real-time Memory Report at c_bands before calling an iterative solver
          1694 MiB given to the printing process from OS
             0 MiB allocation reported by mallinfo(arena+hblkhd)
          5032 MiB available memory on the node where the printing process lives
------------------
     ethr =  2.96E-04,  avg # of iterations =  3.1

     negative rho (up, down):  1.760E-04 0.000E+00

     total cpu time spent up to now is      200.4 secs

     total energy              =   -1007.37152302 Ry
     estimated scf accuracy    <       0.28150940 Ry

     iteration #  6     ecut=    50.00 Ry     beta= 0.40
     Davidson diagonalization with overlap

---- Real-time Memory Report at c_bands before calling an iterative solver
          1699 MiB given to the printing process from OS
             0 MiB allocation reported by mallinfo(arena+hblkhd)
          5031 MiB available memory on the node where the printing process lives
------------------
     ethr =  2.96E-04,  avg # of iterations =  1.2

     negative rho (up, down):  1.902E-04 0.000E+00

     total cpu time spent up to now is      228.2 secs

     total energy              =   -1007.37116774 Ry
     estimated scf accuracy    <       0.03576190 Ry

     iteration #  7     ecut=    50.00 Ry     beta= 0.40
     Davidson diagonalization with overlap

---- Real-time Memory Report at c_bands before calling an iterative solver
          1703 MiB given to the printing process from OS
             0 MiB allocation reported by mallinfo(arena+hblkhd)
          5023 MiB available memory on the node where the printing process lives
------------------
     ethr =  6.75E-05,  avg # of iterations =  4.9

     negative rho (up, down):  2.165E-04 0.000E+00

     total cpu time spent up to now is      260.6 secs

     total energy              =   -1007.36477560 Ry
     estimated scf accuracy    <       0.02126251 Ry

     iteration #  8     ecut=    50.00 Ry     beta= 0.40
     Davidson diagonalization with overlap

---- Real-time Memory Report at c_bands before calling an iterative solver
          1708 MiB given to the printing process from OS
             0 MiB allocation reported by mallinfo(arena+hblkhd)
          5018 MiB available memory on the node where the printing process lives
------------------
     ethr =  4.01E-05,  avg # of iterations =  6.0

     negative rho (up, down):  2.328E-04 0.000E+00

     total cpu time spent up to now is      292.5 secs

     total energy              =   -1007.36329174 Ry
     estimated scf accuracy    <       0.01295811 Ry

     iteration #  9     ecut=    50.00 Ry     beta= 0.40
     Davidson diagonalization with overlap

---- Real-time Memory Report at c_bands before calling an iterative solver
          1713 MiB given to the printing process from OS
             0 MiB allocation reported by mallinfo(arena+hblkhd)
          5014 MiB available memory on the node where the printing process lives
------------------
     ethr =  2.44E-05,  avg # of iterations =  4.1

     negative rho (up, down):  2.449E-04 0.000E+00

     total cpu time spent up to now is      321.5 secs

     total energy              =   -1007.36227057 Ry
     estimated scf accuracy    <       0.00464387 Ry

     iteration # 10     ecut=    50.00 Ry     beta= 0.40
     Davidson diagonalization with overlap

---- Real-time Memory Report at c_bands before calling an iterative solver
          1717 MiB given to the printing process from OS
             0 MiB allocation reported by mallinfo(arena+hblkhd)
          5006 MiB available memory on the node where the printing process lives
------------------
     ethr =  8.76E-06,  avg # of iterations =  7.6

     negative rho (up, down):  2.587E-04 0.000E+00

     total cpu time spent up to now is      354.4 secs

     total energy              =   -1007.36188186 Ry
     estimated scf accuracy    <       0.00170504 Ry

     iteration # 11     ecut=    50.00 Ry     beta= 0.40
     Davidson diagonalization with overlap

---- Real-time Memory Report at c_bands before calling an iterative solver
          1720 MiB given to the printing process from OS
             0 MiB allocation reported by mallinfo(arena+hblkhd)
          5009 MiB available memory on the node where the printing process lives
------------------
     ethr =  3.22E-06,  avg # of iterations =  9.2

     negative rho (up, down):  2.842E-04 0.000E+00

     total cpu time spent up to now is      388.3 secs

     total energy              =   -1007.36196021 Ry
     estimated scf accuracy    <       0.00009932 Ry

     iteration # 12     ecut=    50.00 Ry     beta= 0.40
     Davidson diagonalization with overlap

---- Real-time Memory Report at c_bands before calling an iterative solver
          1720 MiB given to the printing process from OS
             0 MiB allocation reported by mallinfo(arena+hblkhd)
          5003 MiB available memory on the node where the printing process lives
------------------
     ethr =  1.87E-07,  avg # of iterations =  8.8

     negative rho (up, down):  3.591E-04 0.000E+00

     total cpu time spent up to now is      420.5 secs

     total energy              =   -1007.36196664 Ry
     estimated scf accuracy    <       0.00008255 Ry

     iteration # 13     ecut=    50.00 Ry     beta= 0.40
     Davidson diagonalization with overlap

---- Real-time Memory Report at c_bands before calling an iterative solver
          1720 MiB given to the printing process from OS
             0 MiB allocation reported by mallinfo(arena+hblkhd)
          5003 MiB available memory on the node where the printing process lives
------------------
     ethr =  1.56E-07,  avg # of iterations =  2.8

     negative rho (up, down):  3.667E-04 0.000E+00

     total cpu time spent up to now is      447.3 secs

     total energy              =   -1007.36196976 Ry
     estimated scf accuracy    <       0.00001557 Ry

     iteration # 14     ecut=    50.00 Ry     beta= 0.40
     Davidson diagonalization with overlap

---- Real-time Memory Report at c_bands before calling an iterative solver
          1720 MiB given to the printing process from OS
             0 MiB allocation reported by mallinfo(arena+hblkhd)
          5005 MiB available memory on the node where the printing process lives
------------------
     ethr =  2.94E-08,  avg # of iterations =  1.0

     negative rho (up, down):  3.777E-04 0.000E+00

     total cpu time spent up to now is      474.5 secs

     total energy              =   -1007.36196971 Ry
     estimated scf accuracy    <       0.00000397 Ry

     iteration # 15     ecut=    50.00 Ry     beta= 0.40
     Davidson diagonalization with overlap

---- Real-time Memory Report at c_bands before calling an iterative solver
          1720 MiB given to the printing process from OS
             0 MiB allocation reported by mallinfo(arena+hblkhd)
          5003 MiB available memory on the node where the printing process lives
------------------
     ethr =  7.48E-09,  avg # of iterations =  1.0

     negative rho (up, down):  3.807E-04 0.000E+00

     total cpu time spent up to now is      501.6 secs

     End of self-consistent calculation

          k = 0.0000 0.0000 0.0000 ( 18895 PWs)   bands (ev):

  -128.5282-127.4101 -82.7322 -82.7322 -82.6286 -81.6336 -81.5881 -81.5881
   -21.7917 -19.2970 -10.0613  -9.7125  -9.7125  -9.5631  -9.5481  -9.5481
    -9.1912  -9.1912  -8.6649  -8.3981  -8.3981  -6.9609  -5.0616  -4.4457
    -4.4457  -2.8306  -2.8306  -2.1853  -0.7754   0.8368   1.0401   1.1394

     occupation numbers 
     1.0000   1.0000   1.0000   1.0000   1.0000   1.0000   1.0000   1.0000
     1.0000   1.0000   1.0000   1.0000   1.0000   1.0000   1.0000   1.0000
     1.0000   1.0000   1.0000   1.0000   1.0000   1.0000   1.0000   1.0000
     1.0000   0.1156   0.1156   0.0000   0.0000   0.0000   0.0000   0.0000

          k = 0.0000 0.0962 0.0000 ( 18926 PWs)   bands (ev):

  -128.5282-127.4101 -82.7323 -82.7322 -82.6285 -81.6336 -81.5883 -81.5882
   -21.7622 -19.2799 -10.0408  -9.7548  -9.6980  -9.5604  -9.5317  -9.4849
    -9.1984  -9.1820  -8.6516  -8.3988  -8.3735  -6.9067  -5.0811  -4.6415
    -4.5187  -2.9858  -2.8482  -1.9522  -0.6116   0.9664   1.1706   1.2746

     occupation numbers 
     1.0000   1.0000   1.0000   1.0000   1.0000   1.0000   1.0000   1.0000
     1.0000   1.0000   1.0000   1.0000   1.0000   1.0000   1.0000   1.0000
     1.0000   1.0000   1.0000   1.0000   1.0000   1.0000   1.0000   1.0000
     1.0000   0.5545   0.1457   0.0000   0.0000   0.0000   0.0000   0.0000

          k = 0.0000 0.1925 0.0000 ( 19042 PWs)   bands (ev):

  -128.5282-127.4101 -82.7327 -82.7323 -82.6285 -81.6336 -81.5887 -81.5883
   -21.6807 -19.2328  -9.9963  -9.8300  -9.6621  -9.5913  -9.4870  -9.3140
    -9.2086  -9.1513  -8.6304  -8.3980  -8.2618  -6.7744  -5.4054  -4.7627
    -4.7191  -3.2950  -2.8961  -1.5232  -0.1429   1.3535   1.5581   1.6725

     occupation numbers 
     1.0000   1.0000   1.0000   1.0000   1.0000   1.0000   1.0000   1.0000
     1.0000   1.0000   1.0000   1.0000   1.0000   1.0000   1.0000   1.0000
     1.0000   1.0000   1.0000   1.0000   1.0000   1.0000   1.0000   1.0000
     1.0000   1.0636   0.2553   0.0000   0.0000   0.0000   0.0000   0.0000

          k = 0.0000 0.2887 0.0000 ( 19096 PWs)   bands (ev):

  -128.5282-127.4100 -82.7331 -82.7325 -82.6285 -81.6335 -81.5893 -81.5885
   -21.5668 -19.1673  -9.9966  -9.8541  -9.6336  -9.6228  -9.4257  -9.2289
    -9.1029  -9.0968  -8.6205  -8.3875  -8.0042  -6.7141  -5.8909  -4.9974
    -4.5946  -3.6330  -2.9612  -1.0680   0.5486   1.9724   2.1617   2.3043

     occupation numbers 
     1.0000   1.0000   1.0000   1.0000   1.0000   1.0000   1.0000   1.0000
     1.0000   1.0000   1.0000   1.0000   1.0000   1.0000   1.0000   1.0000
     1.0000   1.0000   1.0000   1.0000   1.0000   1.0000   1.0000   1.0000
     1.0000   1.0002   0.4639   0.0000   0.0000   0.0000   0.0000   0.0000

          k = 0.0000 0.3849 0.0000 ( 19138 PWs)   bands (ev):

  -128.5282-127.4100 -82.7336 -82.7326 -82.6284 -81.6335 -81.5899 -81.5886
   -21.4499 -19.1004 -10.0530  -9.8125  -9.6760  -9.5951  -9.3636  -9.1985
    -9.0308  -8.9550  -8.5967  -8.3592  -7.6912  -6.9841  -6.0131  -5.2857
    -4.2954  -3.8396  -3.0256  -0.6233   0.9673   1.5469   2.8953   3.1012

     occupation numbers 
     1.0000   1.0000   1.0000   1.0000   1.0000   1.0000   1.0000   1.0000
     1.0000   1.0000   1.0000   1.0000   1.0000   1.0000   1.0000   1.0000
     1.0000   1.0000   1.0000   1.0000   1.0000   1.0000   1.0000   1.0000
     1.0000   1.0000   0.7038   0.0000   0.0000   0.0000   0.0000   0.0000

          k = 0.0000 0.4811 0.0000 ( 19132 PWs)   bands (ev):

  -128.5281-127.4100 -82.7339 -82.7327 -82.6284 -81.6335 -81.5903 -81.5888
   -21.3623 -19.0507 -10.0924  -9.7822  -9.7068  -9.5815  -9.3171  -9.1477
    -8.9798  -8.8624  -8.4930  -8.3200  -7.8261  -6.9840  -5.9997  -5.5074
    -4.2758  -3.3344  -3.0723  -0.8076  -0.1065   2.2731   3.7949   4.1305

     occupation numbers 
     1.0000   1.0000   1.0000   1.0000   1.0000   1.0000   1.0000   1.0000
     1.0000   1.0000   1.0000   1.0000   1.0000   1.0000   1.0000   1.0000
     1.0000   1.0000   1.0000   1.0000   1.0000   1.0000   1.0000   1.0000
     1.0000   1.0452   0.8624   0.0000   0.0000   0.0000   0.0000   0.0000

          k = 0.0000-0.5774 0.0000 ( 19154 PWs)   bands (ev):

  -128.5281-127.4100 -82.7340 -82.7327 -82.6284 -81.6334 -81.5904 -81.5888
   -21.3298 -19.0323 -10.1046  -9.7738  -9.7179  -9.5778  -9.2998  -9.1219
    -8.9616  -8.8331  -8.3001  -8.2824  -8.1624  -6.8512  -6.0134  -5.5917
    -4.3297  -3.0892  -2.2511  -2.2133   0.0031   2.6964   4.2914   4.5616

     occupation numbers 
     1.0000   1.0000   1.0000   1.0000   1.0000   1.0000   1.0000   1.0000
     1.0000   1.0000   1.0000   1.0000   1.0000   1.0000   1.0000   1.0000
     1.0000   1.0000   1.0000   1.0000   1.0000   1.0000   1.0000   1.0000
     1.0000   0.9115   0.0000   0.0000   0.0000   0.0000   0.0000   0.0000

          k = 0.0833 0.1443 0.0000 ( 18949 PWs)   bands (ev):

  -128.5282-127.4101 -82.7325 -82.7322 -82.6285 -81.6336 -81.5886 -81.5882
   -21.7067 -19.2478 -10.0061  -9.8114  -9.6750  -9.5652  -9.5201  -9.3596
    -9.2085  -9.1612  -8.6348  -8.3999  -8.3032  -6.8123  -5.2608  -4.7938
    -4.6504  -3.1970  -2.8892  -1.6415  -0.2926   1.2250   1.4300   1.5416

     occupation numbers 
     1.0000   1.0000   1.0000   1.0000   1.0000   1.0000   1.0000   1.0000
     1.0000   1.0000   1.0000   1.0000   1.0000   1.0000   1.0000   1.0000
     1.0000   1.0000   1.0000   1.0000   1.0000   1.0000   1.0000   1.0000
     1.0000   1.0775   0.2368   0.0000   0.0000   0.0000   0.0000   0.0000

          k = 0.0833 0.2406 0.0000 ( 19034 PWs)   bands (ev):

  -128.5282-127.4100 -82.7329 -82.7324 -82.6285 -81.6336 -81.5891 -81.5884
   -21.6089 -19.1914  -9.9666  -9.8720  -9.6473  -9.5891  -9.4738  -9.2263
    -9.1797  -9.1093  -8.6233  -8.3958  -8.1061  -6.6991  -5.7094  -4.9958
    -4.6337  -3.4943  -2.9628  -1.2257   0.2992   1.7353   1.9374   2.0607

     occupation numbers 
     1.0000   1.0000   1.0000   1.0000   1.0000   1.0000   1.0000   1.0000
     1.0000   1.0000   1.0000   1.0000   1.0000   1.0000   1.0000   1.0000
     1.0000   1.0000   1.0000   1.0000   1.0000   1.0000   1.0000   1.0000
     1.0000   1.0041   0.4695   0.0000   0.0000   0.0000   0.0000   0.0000

          k = 0.0833 0.3368 0.0000 ( 19101 PWs)   bands (ev):

  -128.5282-127.4100 -82.7334 -82.7326 -82.6284 -81.6335 -81.5896 -81.5886
   -21.4933 -19.1251 -10.0022  -9.8448  -9.6514  -9.5989  -9.4115  -9.2056
    -9.0759  -8.9976  -8.6165  -8.3739  -7.7833  -6.8179  -5.9970  -5.3021
    -4.3799  -3.7715  -3.0450  -0.7830   1.0428   2.0706   2.5570   2.7752

     occupation numbers 
     1.0000   1.0000   1.0000   1.0000   1.0000   1.0000   1.0000   1.0000
     1.0000   1.0000   1.0000   1.0000   1.0000   1.0000   1.0000   1.0000
     1.0000   1.0000   1.0000   1.0000   1.0000   1.0000   1.0000   1.0000
     1.0000   1.0000   0.7730   0.0000   0.0000   0.0000   0.0000   0.0000

          k = 0.0833 0.4330 0.0000 ( 19155 PWs)   bands (ev):

  -128.5281-127.4100 -82.7338 -82.7327 -82.6284 -81.6335 -81.5901 -81.5888
   -21.3908 -19.0666 -10.0482  -9.7979  -9.6816  -9.5904  -9.3562  -9.1565
    -9.0095  -8.8881  -8.5770  -8.3306  -7.6409  -7.0298  -6.0136  -5.5699
    -4.1868  -3.6439  -3.1124  -0.4100   0.2973   2.0326   3.4393   3.6803

     occupation numbers 
     1.0000   1.0000   1.0000   1.0000   1.0000   1.0000   1.0000   1.0000
     1.0000   1.0000   1.0000   1.0000   1.0000   1.0000   1.0000   1.0000
     1.0000   1.0000   1.0000   1.0000   1.0000   1.0000   1.0000   1.0000
     1.0000   1.0001   0.9691   0.0000   0.0000   0.0000   0.0000   0.0000

          k = 0.0833 0.5292 0.0000 ( 19135 PWs)   bands (ev):

  -128.5281-127.4100 -82.7340 -82.7328 -82.6284 -81.6334 -81.5903 -81.5889
   -21.3305 -19.0324 -10.0694  -9.7755  -9.7016  -9.5860  -9.3231  -9.1113
    -8.9706  -8.8266  -8.4374  -8.2782  -7.9889  -6.8594  -6.0207  -5.7360
    -4.2700  -3.1650  -2.7416  -1.4425   0.0033   2.7327   4.1826   4.5251

     occupation numbers 
     1.0000   1.0000   1.0000   1.0000   1.0000   1.0000   1.0000   1.0000
     1.0000   1.0000   1.0000   1.0000   1.0000   1.0000   1.0000   1.0000
     1.0000   1.0000   1.0000   1.0000   1.0000   1.0000   1.0000   1.0000
     1.0000   1.0545   0.0286   0.0000   0.0000   0.0000   0.0000   0.0000

          k = 0.1667 0.2887 0.0000 ( 19063 PWs)   bands (ev):

  -128.5282-127.4100 -82.7333 -82.7326 -82.6285 -81.6335 -81.5895 -81.5886
   -21.5092 -19.1341  -9.9455  -9.8878  -9.6472  -9.5751  -9.4563  -9.1999
    -9.1073  -9.0080  -8.6229  -8.3799  -7.8170  -6.7365  -5.9549  -5.3978
    -4.3961  -3.7046  -3.0830  -0.8384   0.9742   2.3141   2.5201   2.6905

     occupation numbers 
     1.0000   1.0000   1.0000   1.0000   1.0000   1.0000   1.0000   1.0000
     1.0000   1.0000   1.0000   1.0000   1.0000   1.0000   1.0000   1.0000
     1.0000   1.0000   1.0000   1.0000   1.0000   1.0000   1.0000   1.0000
     1.0000   1.0000   0.8942   0.0000   0.0000   0.0000   0.0000   0.0000

          k = 0.1667 0.3849 0.0000 ( 19126 PWs)   bands (ev):

  -128.5281-127.4100 -82.7336 -82.7328 -82.6284 -81.6335 -81.5899 -81.5888
   -21.4076 -19.0758  -9.9705  -9.8351  -9.6592  -9.5779  -9.4179  -9.1441
    -9.0501  -8.9035  -8.6259  -8.3341  -7.5438  -6.9477  -6.0674  -5.7400
    -4.0885  -3.7466  -3.2052  -0.4307   1.2488   2.0625   3.0977   3.3205

     occupation numbers 
     1.0000   1.0000   1.0000   1.0000   1.0000   1.0000   1.0000   1.0000
     1.0000   1.0000   1.0000   1.0000   1.0000   1.0000   1.0000   1.0000
     1.0000   1.0000   1.0000   1.0000   1.0000   1.0000   1.0000   1.0000
     1.0000   1.0000   1.0804   0.0000   0.0000   0.0000   0.0000   0.0000

          k = 0.1667 0.4811 0.0000 ( 19131 PWs)   bands (ev):

  -128.5281-127.4100 -82.7338 -82.7329 -82.6284 -81.6335 -81.5901 -81.5890
   -21.3320 -19.0326  -9.9850  -9.7897  -9.6760  -9.5855  -9.3818  -9.0831
    -8.9898  -8.8121  -8.5841  -8.2698  -7.7529  -6.8522  -6.1775  -5.9192
    -4.1299  -3.3511  -2.9921  -0.4494   0.0543   2.4678   3.2178   4.1431

     occupation numbers 
     1.0000   1.0000   1.0000   1.0000   1.0000   1.0000   1.0000   1.0000
     1.0000   1.0000   1.0000   1.0000   1.0000   1.0000   1.0000   1.0000
     1.0000   1.0000   1.0000   1.0000   1.0000   1.0000   1.0000   1.0000
     1.0000   1.0379   0.5783   0.0000   0.0000   0.0000   0.0000   0.0000

          k = 0.1667 0.5774 0.0000 ( 19115 PWs)   bands (ev):

  -128.5281-127.4100 -82.7339 -82.7330 -82.6284 -81.6334 -81.5902 -81.5891
   -21.3040 -19.0166  -9.9881  -9.7736  -9.6841  -9.5888  -9.3673  -9.0646
    -8.9600  -8.7774  -8.4813  -8.2093  -8.0343  -6.7485  -6.1644  -6.0317
    -4.1725  -3.3649  -1.9286  -1.7853   0.1274   2.4469   3.7538   4.5401

     occupation numbers 
     1.0000   1.0000   1.0000   1.0000   1.0000   1.0000   1.0000   1.0000
     1.0000   1.0000   1.0000   1.0000   1.0000   1.0000   1.0000   1.0000
     1.0000   1.0000   1.0000   1.0000   1.0000   1.0000   1.0000   1.0000
     1.0000   1.0323   0.0000   0.0000   0.0000   0.0000   0.0000   0.0000

          k = 0.2500 0.4330 0.0000 ( 19111 PWs)   bands (ev):

  -128.5281-127.4100 -82.7337 -82.7330 -82.6284 -81.6334 -81.5900 -81.5892
   -21.3327 -19.0327  -9.9236  -9.8143  -9.6759  -9.5586  -9.4262  -9.0613
    -9.0037  -8.8010  -8.6497  -8.2657  -7.6322  -6.8092  -6.3846  -5.9348
    -4.0348  -3.4701  -3.0646  -0.1098   0.6729   1.4837   3.0518   4.0816

     occupation numbers 
     1.0000   1.0000   1.0000   1.0000   1.0000   1.0000   1.0000   1.0000
     1.0000   1.0000   1.0000   1.0000   1.0000   1.0000   1.0000   1.0000
     1.0000   1.0000   1.0000   1.0000   1.0000   1.0000   1.0000   1.0000
     1.0000   1.0065   0.8385   0.0000   0.0000   0.0000   0.0000   0.0000

          k = 0.2500 0.5292 0.0000 ( 19130 PWs)   bands (ev):

  -128.5281-127.4100 -82.7337 -82.7332 -82.6284 -81.6334 -81.5901 -81.5894
   -21.2891 -19.0075  -9.8951  -9.7860  -9.6986  -9.5475  -9.4290  -9.0435
    -8.9310  -8.7019  -8.5819  -8.2107  -7.9434  -6.7338  -6.4447  -6.0693
    -4.0228  -3.5886  -2.0656  -0.7082   0.1968   0.9287   4.0535   4.8126

     occupation numbers 
     1.0000   1.0000   1.0000   1.0000   1.0000   1.0000   1.0000   1.0000
     1.0000   1.0000   1.0000   1.0000   1.0000   1.0000   1.0000   1.0000
     1.0000   1.0000   1.0000   1.0000   1.0000   1.0000   1.0000   1.0000
     1.0000   1.0005   0.0000   0.0000   0.0000   0.0000   0.0000   0.0000

          k = 0.3333 0.5774 0.0000 ( 19131 PWs)   bands (ev):

  -128.5281-127.4100 -82.7335 -82.7335 -82.6284 -81.6334 -81.5899 -81.5897
   -21.2735 -18.9983  -9.8391  -9.7904  -9.7241  -9.4892  -9.4874  -9.0393
    -8.8994  -8.6689  -8.4599  -8.2605  -8.0442  -6.8536  -6.3302  -6.1940
    -3.8621  -3.8065  -1.2075  -0.5769  -0.4788   0.3161   4.7203   4.9795

     occupation numbers 
     1.0000   1.0000   1.0000   1.0000   1.0000   1.0000   1.0000   1.0000
     1.0000   1.0000   1.0000   1.0000   1.0000   1.0000   1.0000   1.0000
     1.0000   1.0000   1.0000   1.0000   1.0000   1.0000   1.0000   1.0000
     1.0000   1.0000   0.0000   0.0000   0.0000   0.0000   0.0000   0.0000

     the Fermi energy is    -2.9433 ev

!    total energy              =   -1007.36196979 Ry
     estimated scf accuracy    <          9.1E-09 Ry
     smearing contrib. (-TS)   =      -0.00046121 Ry
     internal energy E=F+TS    =   -1007.36150858 Ry

     The total energy is F=E-TS. E is the sum of the following terms:
     one-electron contribution =  -15055.28064399 Ry
     hartree contribution      =    7524.94745396 Ry
     xc contribution           =     -99.55062448 Ry
     ewald contribution        =    6641.57158638 Ry
     one-center paw contrib.   =     -19.04928045 Ry
      -> PAW hartree energy AE =      50.32059902 Ry
      -> PAW hartree energy PS =     -50.08617975 Ry
      -> PAW xc energy AE      =     -33.03852564 Ry
      -> PAW xc energy PS      =      13.75482592 Ry
      -> total E_H with PAW    =    7525.18187324 Ry
      -> total E_XC with PAW   =    -118.83432420 Ry

     convergence has been achieved in  15 iterations

     negative rho (up, down):  3.807E-04 0.000E+00

     Forces acting on atoms (cartesian axes, Ry/au):

     atom    1 type  2   force =     0.00000000    0.00000000    0.04843880
     atom    2 type  2   force =     0.00000000    0.00000000   -0.00956194
     atom    3 type  1   force =     0.00000000   -0.00000000    0.19576620
     atom    4 type  1   force =     0.00000000   -0.00000000   -0.00657254
     atom    5 type  3   force =     0.00000000    0.00000000   -0.22807051
     The non-local contrib.  to forces
     atom    1 type  2   force =    -0.00000000    0.00000000    0.03874357
     atom    2 type  2   force =     0.00000000    0.00000000   -0.34510664
     atom    3 type  1   force =     0.00000000    0.00000000    0.78345994
     atom    4 type  1   force =     0.00000000   -0.00000000   -0.02198801
     atom    5 type  3   force =     0.00000000    0.00000000   -0.02461694
     The ionic contribution  to forces
     atom    1 type  2   force =    -0.00000057    0.00000033  109.75464918
     atom    2 type  2   force =     0.00000005   -0.00000003 -229.05251102
     atom    3 type  1   force =    -0.00000000    0.00000000   94.37389730
     atom    4 type  1   force =     0.00000053   -0.00000030    7.33283136
     atom    5 type  3   force =    -0.00000000    0.00000000   17.59113318
     The local contribution  to forces
     atom    1 type  2   force =    -0.00001936    0.00001118 -109.74482807
     atom    2 type  2   force =     0.00001961   -0.00001132  229.38809427
     atom    3 type  1   force =    -0.00000134    0.00000077  -94.95057136
     atom    4 type  1   force =     0.00000113   -0.00000065   -7.31722728
     atom    5 type  3   force =    -0.00000005    0.00000003  -17.79461844
     The core correction contribution to forces
     atom    1 type  2   force =     0.00000000    0.00000000    0.00000000
     atom    2 type  2   force =     0.00000000    0.00000000    0.00000000
     atom    3 type  1   force =    -0.00000000    0.00000000   -0.01096298
     atom    4 type  1   force =     0.00000000   -0.00000000   -0.00002148
     atom    5 type  3   force =     0.00000000    0.00000000    0.00000000
     The Hubbard contrib.    to forces
     atom    1 type  2   force =     0.00000000    0.00000000    0.00000000
     atom    2 type  2   force =     0.00000000    0.00000000    0.00000000
     atom    3 type  1   force =     0.00000000    0.00000000    0.00000000
     atom    4 type  1   force =     0.00000000    0.00000000    0.00000000
     atom    5 type  3   force =     0.00000000    0.00000000    0.00000000
     The SCF correction term to forces
     atom    1 type  2   force =    -0.00000000    0.00000000   -0.00015946
     atom    2 type  2   force =     0.00000000   -0.00000000   -0.00007212
     atom    3 type  1   force =    -0.00000000    0.00000000   -0.00009027
     atom    4 type  1   force =     0.00000000   -0.00000000   -0.00020070
     atom    5 type  3   force =    -0.00000000    0.00000000   -0.00000188

     Total force =     0.304666     Total SCF correction =     0.000281


     Computing stress (Cartesian axis) and pressure


     negative rho (up, down):  3.807E-04 0.000E+00
          total   stress  (Ry/bohr**3)                   (kbar)     P=      -12.37
  -0.00001821   0.00000000   0.00000000           -2.68        0.00        0.00
   0.00000000  -0.00001821   0.00000000            0.00       -2.68        0.00
   0.00000000   0.00000000  -0.00021575            0.00        0.00      -31.74

     kinetic stress (kbar)   3535.92     -0.00      0.00
                               -0.00   3535.92      0.00
                                0.00      0.00   3432.04

     local   stress (kbar)-654012.83     -0.00      0.00
                               -0.00-654012.83     -0.00
                                0.00     -0.00 650535.67

     nonloc. stress (kbar)    -71.09      0.00      0.00
                                0.00    -71.09      0.00
                                0.00      0.00    -65.78

     hartree stress (kbar) 332264.84     -0.00     -0.00
                               -0.00 332264.84     -0.00
                               -0.00     -0.00-318445.01

     exc-cor stress (kbar)  -1423.15      0.00     -0.00
                                0.00  -1423.15      0.00
                               -0.00      0.00  -1421.11

     corecor stress (kbar)    -39.13     -0.00     -0.00
                               -0.00    -39.13      0.00
                               -0.00      0.00    -38.78

     ewald   stress (kbar) 319742.77      0.00     -0.00
                                0.00 319742.77      0.00
                               -0.00      0.00-334028.77

     hubbard stress (kbar)      0.00      0.00      0.00
                                0.00      0.00      0.00
                                0.00      0.00      0.00

     DFT-D   stress (kbar)      0.00      0.00      0.00
                                0.00      0.00      0.00
                                0.00      0.00      0.00

     XDM     stress (kbar)      0.00      0.00      0.00
                                0.00      0.00      0.00
                                0.00      0.00      0.00

     dft-nl  stress (kbar)      0.00      0.00      0.00
                                0.00      0.00      0.00
                                0.00      0.00      0.00

     TS-vdW  stress (kbar)      0.00      0.00      0.00
                                0.00      0.00      0.00
                                0.00      0.00      0.00

     MDB     stress (kbar)      0.00      0.00      0.00
                                0.00      0.00      0.00
                                0.00      0.00      0.00

     3D-RISM stress (kbar)      0.00      0.00      0.00
                                0.00      0.00      0.00
                                0.00      0.00      0.00


     Writing all to output data dir ./temp_hexag/aiida.save/ :
     XML data file, charge density, pseudopotentials, collected wavefunctions

     init_run     :    209.44s CPU     13.73s WALL (       1 calls)
     electrons    :   7412.03s CPU    487.53s WALL (       1 calls)
     forces       :     46.47s CPU      5.33s WALL (       1 calls)
     stress       :    107.04s CPU     12.22s WALL (       1 calls)

     Called by init_run:
     wfcinit      :    198.53s CPU     11.53s WALL (       1 calls)
     wfcinit:atom :      2.34s CPU      0.10s WALL (      19 calls)
     wfcinit:wfcr :    189.76s CPU     10.86s WALL (      19 calls)
     potinit      :      5.55s CPU      0.48s WALL (       1 calls)
     hinit0       :      2.02s CPU      0.36s WALL (       1 calls)

     Called by electrons:
     c_bands      :   6053.95s CPU    385.73s WALL (      15 calls)
     sum_band     :   1265.54s CPU     79.58s WALL (      15 calls)
     v_of_rho     :     23.50s CPU      3.40s WALL (      16 calls)
     v_h          :      6.36s CPU      0.52s WALL (      16 calls)
     v_xc         :     19.28s CPU      3.24s WALL (      18 calls)
     newd         :     35.88s CPU     17.85s WALL (      16 calls)
     PAW_pot      :     22.71s CPU      1.01s WALL (      16 calls)
     mix_rho      :      9.22s CPU      0.87s WALL (      15 calls)

     Called by c_bands:
     init_us_2    :     46.17s CPU      4.10s WALL (     627 calls)
     cegterg      :   6010.55s CPU    380.71s WALL (     285 calls)

     Called by sum_band:
     sum_band:wei :      0.00s CPU      0.00s WALL (      15 calls)
     sum_band:loo :   1238.35s CPU     58.92s WALL (      15 calls)
     sum_band:buf :      3.56s CPU      0.36s WALL (     285 calls)
     sum_band:ini :     22.05s CPU      1.41s WALL (     285 calls)
     sum_band:cal :    108.43s CPU     10.23s WALL (     285 calls)
     sum_band:bec :     16.96s CPU      1.34s WALL (     285 calls)
     addusdens    :     23.70s CPU     20.03s WALL (      15 calls)
                                        0.00s GPU  (      15 calls)
     addusd:skk   :      0.94s CPU      0.07s WALL (      45 calls)
                                        0.00s GPU  (      45 calls)

     Called by *egterg:
     cdiaghg      :     19.47s CPU      1.35s WALL (    1697 calls)
     cegterg:over :    135.81s CPU     25.98s WALL (    1412 calls)
     cegterg:upda :    207.19s CPU     22.19s WALL (    1412 calls)
     cegterg:last :     77.82s CPU     39.40s WALL (     542 calls)
     h_psi        :   5387.18s CPU    257.65s WALL (    1716 calls)
     s_psi        :    280.68s CPU     26.46s WALL (    1716 calls)
     g_psi        :     16.92s CPU      1.52s WALL (    1412 calls)

     Called by h_psi:
     h_psi:calbec :    350.36s CPU     26.18s WALL (    1716 calls)
     vloc_psi     :   4896.49s CPU    206.86s WALL (    1716 calls)
     add_vuspsi   :    111.59s CPU     23.12s WALL (    1716 calls)

     General routines
     calbec       :    487.83s CPU     39.64s WALL (    2096 calls)
     fft          :     18.65s CPU      3.27s WALL (     231 calls)
     ffts         :      1.57s CPU      0.15s WALL (      31 calls)
     fftw         :   4458.37s CPU    187.75s WALL (   53748 calls)
     interpolate  :      3.74s CPU      0.37s WALL (      16 calls)

     Parallel routines

     PAW routines
     PAW_pot      :     22.71s CPU      1.01s WALL (      16 calls)
     PAW_symme    :      0.00s CPU      0.00s WALL (      31 calls)

     PWSCF        :      2h 9m CPU   8m41.61s WALL


   This run was terminated on:  20: 1:13  14Jun2024            

=------------------------------------------------------------------------------=
   JOB DONE.
=------------------------------------------------------------------------------=
