
     Program PWSCF v.7.3.1 starts on 14Jun2024 at 21:14: 2 

     This program is part of the open-source Quantum ESPRESSO suite
     for quantum simulation of materials; please cite
         "P. Giannozzi et al., J. Phys.:Condens. Matter 21 395502 (2009);
         "P. Giannozzi et al., J. Phys.:Condens. Matter 29 465901 (2017);
         "P. Giannozzi et al., J. Chem. Phys. 152 154105 (2020);
          URL http://www.quantum-espresso.org", 
     in publications or presentations arising from this work. More details at
     http://www.quantum-espresso.org/quote

     Parallel version (MPI & OpenMP), running on      24 processor cores
     Number of MPI processes:                 1
     Threads/MPI process:                    24

     MPI processes distributed on     1 nodes
     5413 MiB available memory on the printing compute node when the environment starts

     Waiting for input...
     Reading input from standard input
Warning: card H      1.00794 H.PBE-RRKJUS_PSL.1.0.0.UPF ignored

     Current dimensions of program PWSCF are:
     Max number of different atomic species (ntypx) = 10
     Max number of k-points (npk) =  40000
     Max angular momentum in pseudopotentials (lmaxx) =  4
     file O.pbe-n-kjpaw_psl.0.1.UPF: wavefunction(s)  2P renormalized
     Message from routine setup:
     using ibrav=0 with symmetry is DISCOURAGED, use correct ibrav instead

     Subspace diagonalization in iterative solution of the eigenvalue problem:
     a serial algorithm will be used


     G-vector sticks info
     --------------------
     sticks:   dense  smooth     PW     G-vecs:    dense   smooth      PW
     Sum        1039     511    151               432659   152803   25137

     Using Slab Decomposition



     bravais-lattice index     =            0
     lattice parameter (alat)  =       6.1177  a.u.
     unit-cell volume          =    3198.5179 (a.u.)^3
     number of atoms/cell      =            4
     number of atomic types    =            2
     number of electrons       =        52.00
     number of Kohn-Sham states=           31
     kinetic-energy cutoff     =      50.0000  Ry
     charge density cutoff     =     400.0000  Ry
     scf convergence threshold =      2.0E-08
     mixing beta               =       0.4000
     number of iterations used =            8  plain     mixing
     Exchange-correlation= SLA  PW   PBE  PBE
                           (   1   4   3   4   0   0   0)

     celldm(1)=   6.117707  celldm(2)=   0.000000  celldm(3)=   0.000000
     celldm(4)=   0.000000  celldm(5)=   0.000000  celldm(6)=   0.000000

     crystal axes: (cart. coord. in units of alat)
               a(1) = (   1.000000   0.000000   0.000000 )  
               a(2) = (  -0.500000   0.866025   0.000000 )  
               a(3) = (   0.000000   0.000000  16.130661 )  

     reciprocal axes: (cart. coord. in units 2 pi/alat)
               b(1) = (  1.000000  0.577350 -0.000000 )  
               b(2) = (  0.000000  1.154701  0.000000 )  
               b(3) = (  0.000000 -0.000000  0.061994 )  


     PseudoPot. # 1 for O  read from file:
     ../SSSP_1.3.0_PBE_efficiency/O.pbe-n-kjpaw_psl.0.1.UPF
     MD5 check sum: 0234752ac141de4415c5fc33072bef88
     Pseudo is Projector augmented-wave + core cor, Zval =  6.0
     Generated using "atomic" code by A. Dal Corso  v.5.0.99 svn rev. 10869
     Shape of augmentation charge: BESSEL
     Using radial grid of 1095 points,  4 beta functions with: 
                l(1) =   0
                l(2) =   0
                l(3) =   1
                l(4) =   1
     Q(r) pseudized with 0 coefficients 


     PseudoPot. # 2 for Zn read from file:
     ../SSSP_1.3.0_PBE_efficiency/Zn_pbe_v1.uspp.F.UPF
     MD5 check sum: df62231357ef9e81f77b2b3087fa5675
     Pseudo is Ultrasoft, Zval = 20.0
     Generated by new atomic code, or converted to UPF format
     Using radial grid of  943 points,  6 beta functions with: 
                l(1) =   0
                l(2) =   0
                l(3) =   1
                l(4) =   1
                l(5) =   2
                l(6) =   2
     Q(r) pseudized with  8 coefficients,  rinner =    1.100   1.100   1.100
                                                       1.100   1.100

     atomic species   valence    mass     pseudopotential
     O                 6.00    15.99940     O ( 1.00)
     Zn               20.00    65.38000     Zn( 1.00)

      6 Sym. Ops. (no inversion) found


                                    s                        frac. trans.

      isym =  1     identity                                     

 cryst.   s( 1) = (     1          0          0      )
                  (     0          1          0      )
                  (     0          0          1      )

 cart.    s( 1) = (  1.0000000  0.0000000  0.0000000 )
                  (  0.0000000  1.0000000  0.0000000 )
                  (  0.0000000  0.0000000  1.0000000 )


      isym =  2     120 deg rotation - cryst. axis [0,0,1]       

 cryst.   s( 2) = (     0          1          0      )
                  (    -1         -1          0      )
                  (     0          0          1      )

 cart.    s( 2) = ( -0.5000000 -0.8660254  0.0000000 )
                  (  0.8660254 -0.5000000  0.0000000 )
                  (  0.0000000  0.0000000  1.0000000 )


      isym =  3     120 deg rotation - cryst. axis [0,0,-1]      

 cryst.   s( 3) = (    -1         -1          0      )
                  (     1          0          0      )
                  (     0          0          1      )

 cart.    s( 3) = ( -0.5000000  0.8660254  0.0000000 )
                  ( -0.8660254 -0.5000000  0.0000000 )
                  (  0.0000000  0.0000000  1.0000000 )


      isym =  4     inv. 180 deg rotation - cart. axis [1,0,0]   

 cryst.   s( 4) = (    -1          0          0      )
                  (     1          1          0      )
                  (     0          0          1      )

 cart.    s( 4) = ( -1.0000000  0.0000000  0.0000000 )
                  (  0.0000000  1.0000000  0.0000000 )
                  (  0.0000000  0.0000000  1.0000000 )


      isym =  5     inv. 180 deg rotation - cryst. axis [0,1,0]  

 cryst.   s( 5) = (     1          1          0      )
                  (     0         -1          0      )
                  (     0          0          1      )

 cart.    s( 5) = (  0.5000000  0.8660254  0.0000000 )
                  (  0.8660254 -0.5000000  0.0000000 )
                  (  0.0000000  0.0000000  1.0000000 )


      isym =  6     inv. 180 deg rotation - cryst. axis [1,1,0]  

 cryst.   s( 6) = (     0         -1          0      )
                  (    -1          0          0      )
                  (     0          0          1      )

 cart.    s( 6) = (  0.5000000 -0.8660254  0.0000000 )
                  ( -0.8660254 -0.5000000  0.0000000 )
                  (  0.0000000  0.0000000  1.0000000 )


   Cartesian axes

     site n.     atom                  positions (alat units)
         1        Zn     tau(   1) = (   0.5000000   0.2886751   0.8074875  )
         2        Zn     tau(   2) = (  -0.0000000   0.5773503   0.0009545  )
         3        O      tau(   3) = (   0.5000000   0.2886751   1.4190438  )
         4        O      tau(   4) = (  -0.0000000   0.5773503   0.6125107  )

   Crystallographic axes

     site n.     atom                  positions (cryst. coord.)
         1        Zn     tau(   1) = (  0.6666667  0.3333333  0.0500592  )
         2        Zn     tau(   2) = (  0.3333333  0.6666667  0.0000592  )
         3        O      tau(   3) = (  0.6666667  0.3333333  0.0879718  )
         4        O      tau(   4) = (  0.3333333  0.6666667  0.0379718  )

     number of k points=    19  Marzari-Vanderbilt smearing, width (Ry)=  0.0147
                       cart. coord. in units 2pi/alat
        k(    1) = (   0.0000000   0.0000000   0.0000000), wk =   0.0138889
        k(    2) = (   0.0000000   0.0962250   0.0000000), wk =   0.0833333
        k(    3) = (   0.0000000   0.1924501   0.0000000), wk =   0.0833333
        k(    4) = (   0.0000000   0.2886751   0.0000000), wk =   0.0833333
        k(    5) = (   0.0000000   0.3849002   0.0000000), wk =   0.0833333
        k(    6) = (   0.0000000   0.4811252   0.0000000), wk =   0.0833333
        k(    7) = (   0.0000000  -0.5773503   0.0000000), wk =   0.0416667
        k(    8) = (   0.0833333   0.1443376   0.0000000), wk =   0.0833333
        k(    9) = (   0.0833333   0.2405626   0.0000000), wk =   0.1666667
        k(   10) = (   0.0833333   0.3367877   0.0000000), wk =   0.1666667
        k(   11) = (   0.0833333   0.4330127   0.0000000), wk =   0.1666667
        k(   12) = (   0.0833333   0.5292377   0.0000000), wk =   0.1666667
        k(   13) = (   0.1666667   0.2886751   0.0000000), wk =   0.0833333
        k(   14) = (   0.1666667   0.3849002   0.0000000), wk =   0.1666667
        k(   15) = (   0.1666667   0.4811252   0.0000000), wk =   0.1666667
        k(   16) = (   0.1666667   0.5773503   0.0000000), wk =   0.0833333
        k(   17) = (   0.2500000   0.4330127   0.0000000), wk =   0.0833333
        k(   18) = (   0.2500000   0.5292377   0.0000000), wk =   0.1666667
        k(   19) = (   0.3333333   0.5773503   0.0000000), wk =   0.0277778

                       cryst. coord.
        k(    1) = (   0.0000000   0.0000000   0.0000000), wk =   0.0138889
        k(    2) = (   0.0000000   0.0833333   0.0000000), wk =   0.0833333
        k(    3) = (   0.0000000   0.1666667   0.0000000), wk =   0.0833333
        k(    4) = (   0.0000000   0.2500000   0.0000000), wk =   0.0833333
        k(    5) = (   0.0000000   0.3333333   0.0000000), wk =   0.0833333
        k(    6) = (   0.0000000   0.4166667   0.0000000), wk =   0.0833333
        k(    7) = (   0.0000000  -0.5000000   0.0000000), wk =   0.0416667
        k(    8) = (   0.0833333   0.0833333   0.0000000), wk =   0.0833333
        k(    9) = (   0.0833333   0.1666667   0.0000000), wk =   0.1666667
        k(   10) = (   0.0833333   0.2500000   0.0000000), wk =   0.1666667
        k(   11) = (   0.0833333   0.3333333   0.0000000), wk =   0.1666667
        k(   12) = (   0.0833333   0.4166667   0.0000000), wk =   0.1666667
        k(   13) = (   0.1666667   0.1666667   0.0000000), wk =   0.0833333
        k(   14) = (   0.1666667   0.2500000   0.0000000), wk =   0.1666667
        k(   15) = (   0.1666667   0.3333333   0.0000000), wk =   0.1666667
        k(   16) = (   0.1666667   0.4166667   0.0000000), wk =   0.0833333
        k(   17) = (   0.2500000   0.2500000   0.0000000), wk =   0.0833333
        k(   18) = (   0.2500000   0.3333333   0.0000000), wk =   0.1666667
        k(   19) = (   0.3333333   0.3333333   0.0000000), wk =   0.0277778

     Dense  grid:   432659 G-vectors     FFT dimensions: (  40,  40, 640)

     Smooth grid:   152803 G-vectors     FFT dimensions: (  27,  27, 450)

     Dynamical RAM for                 wfc:       9.03 MB

     Dynamical RAM for     wfc (w. buffer):     180.66 MB

     Dynamical RAM for           str. fact:      13.20 MB

     Dynamical RAM for           local pot:       0.00 MB

     Dynamical RAM for          nlocal pot:      15.15 MB

     Dynamical RAM for                qrad:       3.21 MB

     Dynamical RAM for          rho,v,vnew:      43.24 MB

     Dynamical RAM for               rhoin:      14.41 MB

     Dynamical RAM for            rho*nmix:     105.63 MB

     Dynamical RAM for           G-vectors:      25.92 MB

     Dynamical RAM for          h,s,v(r/c):       0.18 MB

     Dynamical RAM for          <psi|beta>:       0.02 MB

     Dynamical RAM for                 psi:      18.07 MB

     Dynamical RAM for                hpsi:      18.07 MB

     Dynamical RAM for                spsi:      18.07 MB

     Dynamical RAM for      wfcinit/wfcrot:      19.84 MB

     Dynamical RAM for           addusdens:    1241.15 MB

     Dynamical RAM for          addusforce:    1257.66 MB

     Dynamical RAM for         addusstress:    1326.97 MB

     Estimated static dynamical RAM per process >     354.67 MB

     Estimated max dynamical RAM per process >       1.75 GB

     Initial potential from superposition of free atoms

     starting charge      51.9997, renormalised to      52.0000

     negative rho (up, down):  3.746E-04 0.000E+00
     Starting wfcs are   34 randomized atomic wfcs
     Checking if some PAW data can be deallocated... 

     total cpu time spent up to now is       12.3 secs

     Self-consistent Calculation

     iteration #  1     ecut=    50.00 Ry     beta= 0.40
     Davidson diagonalization with overlap

---- Real-time Memory Report at c_bands before calling an iterative solver
          1420 MiB given to the printing process from OS
             0 MiB allocation reported by mallinfo(arena+hblkhd)
          5046 MiB available memory on the node where the printing process lives
------------------
     ethr =  1.00E-02,  avg # of iterations =  4.6

     negative rho (up, down):  2.514E-04 0.000E+00

     total cpu time spent up to now is       43.1 secs

     WARNING: integrated charge=    52.00066546, expected=    52.00000000

     total energy              =   -1002.17310971 Ry
     estimated scf accuracy    <       7.07336460 Ry

     iteration #  2     ecut=    50.00 Ry     beta= 0.40
     Davidson diagonalization with overlap

---- Real-time Memory Report at c_bands before calling an iterative solver
          1666 MiB given to the printing process from OS
             0 MiB allocation reported by mallinfo(arena+hblkhd)
          4985 MiB available memory on the node where the printing process lives
------------------
     ethr =  1.00E-02,  avg # of iterations =  9.3

     negative rho (up, down):  4.782E-04 0.000E+00

     total cpu time spent up to now is      103.5 secs

     WARNING: integrated charge=    52.00064850, expected=    52.00000000

     total energy              =    -985.29333193 Ry
     estimated scf accuracy    <     907.33254526 Ry

     iteration #  3     ecut=    50.00 Ry     beta= 0.40
     Davidson diagonalization with overlap

---- Real-time Memory Report at c_bands before calling an iterative solver
          1671 MiB given to the printing process from OS
             0 MiB allocation reported by mallinfo(arena+hblkhd)
          4983 MiB available memory on the node where the printing process lives
------------------
     ethr =  1.00E-02,  avg # of iterations =  6.2

     negative rho (up, down):  5.438E-04 0.000E+00

     total cpu time spent up to now is      151.3 secs

     WARNING: integrated charge=    52.00060015, expected=    52.00000000

     total energy              =   -1004.31459785 Ry
     estimated scf accuracy    <      56.91046954 Ry

     iteration #  4     ecut=    50.00 Ry     beta= 0.40
     Davidson diagonalization with overlap

---- Real-time Memory Report at c_bands before calling an iterative solver
          1676 MiB given to the printing process from OS
             0 MiB allocation reported by mallinfo(arena+hblkhd)
          4974 MiB available memory on the node where the printing process lives
------------------
     ethr =  1.00E-02,  avg # of iterations =  6.0

     negative rho (up, down):  3.549E-04 0.000E+00

     total cpu time spent up to now is      186.5 secs

     WARNING: integrated charge=    52.00044704, expected=    52.00000000

     total energy              =   -1006.12729870 Ry
     estimated scf accuracy    <       0.19380070 Ry

     iteration #  5     ecut=    50.00 Ry     beta= 0.40
     Davidson diagonalization with overlap

---- Real-time Memory Report at c_bands before calling an iterative solver
          1681 MiB given to the printing process from OS
             0 MiB allocation reported by mallinfo(arena+hblkhd)
          4973 MiB available memory on the node where the printing process lives
------------------
     ethr =  3.73E-04,  avg # of iterations =  4.2

     negative rho (up, down):  2.777E-04 0.000E+00

     total cpu time spent up to now is      221.6 secs

     WARNING: integrated charge=    52.00023209, expected=    52.00000000

     total energy              =   -1006.14710387 Ry
     estimated scf accuracy    <       0.03953349 Ry

     iteration #  6     ecut=    50.00 Ry     beta= 0.40
     Davidson diagonalization with overlap

---- Real-time Memory Report at c_bands before calling an iterative solver
          1686 MiB given to the printing process from OS
             0 MiB allocation reported by mallinfo(arena+hblkhd)
          4897 MiB available memory on the node where the printing process lives
------------------
     ethr =  7.60E-05,  avg # of iterations =  2.9

     negative rho (up, down):  2.653E-04 0.000E+00

     total cpu time spent up to now is      255.8 secs

     WARNING: integrated charge=    52.00008437, expected=    52.00000000

     total energy              =   -1006.14596784 Ry
     estimated scf accuracy    <       0.01838919 Ry

     iteration #  7     ecut=    50.00 Ry     beta= 0.40
     Davidson diagonalization with overlap

---- Real-time Memory Report at c_bands before calling an iterative solver
          1690 MiB given to the printing process from OS
             0 MiB allocation reported by mallinfo(arena+hblkhd)
          4794 MiB available memory on the node where the printing process lives
------------------
     ethr =  3.54E-05,  avg # of iterations =  3.7

     negative rho (up, down):  2.631E-04 0.000E+00

     total cpu time spent up to now is      284.5 secs

     WARNING: integrated charge=    52.00003158, expected=    52.00000000

     total energy              =   -1006.14491380 Ry
     estimated scf accuracy    <       0.01407113 Ry

     iteration #  8     ecut=    50.00 Ry     beta= 0.40
     Davidson diagonalization with overlap

---- Real-time Memory Report at c_bands before calling an iterative solver
          1695 MiB given to the printing process from OS
             0 MiB allocation reported by mallinfo(arena+hblkhd)
          4787 MiB available memory on the node where the printing process lives
------------------
     ethr =  2.71E-05,  avg # of iterations =  3.5

     negative rho (up, down):  2.665E-04 0.000E+00

     total cpu time spent up to now is      313.0 secs

     WARNING: integrated charge=    52.00001097, expected=    52.00000000

     total energy              =   -1006.14406767 Ry
     estimated scf accuracy    <       0.01125205 Ry

     iteration #  9     ecut=    50.00 Ry     beta= 0.40
     Davidson diagonalization with overlap

---- Real-time Memory Report at c_bands before calling an iterative solver
          1702 MiB given to the printing process from OS
             0 MiB allocation reported by mallinfo(arena+hblkhd)
          4947 MiB available memory on the node where the printing process lives
------------------
     ethr =  2.16E-05,  avg # of iterations =  2.8

     negative rho (up, down):  2.689E-04 0.000E+00

     total cpu time spent up to now is      340.7 secs

     WARNING: integrated charge=    52.00000813, expected=    52.00000000

     total energy              =   -1006.14355924 Ry
     estimated scf accuracy    <       0.00763913 Ry

     iteration # 10     ecut=    50.00 Ry     beta= 0.40
     Davidson diagonalization with overlap

---- Real-time Memory Report at c_bands before calling an iterative solver
          1707 MiB given to the printing process from OS
             0 MiB allocation reported by mallinfo(arena+hblkhd)
          4939 MiB available memory on the node where the printing process lives
------------------
     ethr =  1.47E-05,  avg # of iterations =  4.2

     negative rho (up, down):  2.715E-04 0.000E+00

     total cpu time spent up to now is      370.1 secs

     total energy              =   -1006.14360461 Ry
     estimated scf accuracy    <       0.00578101 Ry

     iteration # 11     ecut=    50.00 Ry     beta= 0.40
     Davidson diagonalization with overlap

---- Real-time Memory Report at c_bands before calling an iterative solver
          1709 MiB given to the printing process from OS
             0 MiB allocation reported by mallinfo(arena+hblkhd)
          4940 MiB available memory on the node where the printing process lives
------------------
     ethr =  1.11E-05,  avg # of iterations =  1.0

     negative rho (up, down):  2.956E-04 0.000E+00

     total cpu time spent up to now is      395.9 secs

     WARNING: integrated charge=    51.99997148, expected=    52.00000000

     total energy              =   -1006.14060878 Ry
     estimated scf accuracy    <       0.00586385 Ry

     iteration # 12     ecut=    50.00 Ry     beta= 0.40
     Davidson diagonalization with overlap

---- Real-time Memory Report at c_bands before calling an iterative solver
          1709 MiB given to the printing process from OS
             0 MiB allocation reported by mallinfo(arena+hblkhd)
          4936 MiB available memory on the node where the printing process lives
------------------
     ethr =  1.11E-05,  avg # of iterations =  9.1

     negative rho (up, down):  3.167E-04 0.000E+00

     total cpu time spent up to now is      431.0 secs

     WARNING: integrated charge=    51.99998672, expected=    52.00000000

     total energy              =   -1006.14133072 Ry
     estimated scf accuracy    <       0.00006308 Ry

     iteration # 13     ecut=    50.00 Ry     beta= 0.40
     Davidson diagonalization with overlap

---- Real-time Memory Report at c_bands before calling an iterative solver
          1710 MiB given to the printing process from OS
             0 MiB allocation reported by mallinfo(arena+hblkhd)
          4939 MiB available memory on the node where the printing process lives
------------------
     ethr =  1.21E-07,  avg # of iterations =  6.1

     negative rho (up, down):  3.961E-04 0.000E+00

     total cpu time spent up to now is      469.9 secs

     total energy              =   -1006.14134641 Ry
     estimated scf accuracy    <       0.00001145 Ry

     iteration # 14     ecut=    50.00 Ry     beta= 0.40
     Davidson diagonalization with overlap

---- Real-time Memory Report at c_bands before calling an iterative solver
          1710 MiB given to the printing process from OS
             0 MiB allocation reported by mallinfo(arena+hblkhd)
          4939 MiB available memory on the node where the printing process lives
------------------
     ethr =  2.20E-08,  avg # of iterations =  2.9

     negative rho (up, down):  4.244E-04 0.000E+00

     total cpu time spent up to now is      500.6 secs

     total energy              =   -1006.14134672 Ry
     estimated scf accuracy    <       0.00000276 Ry

     iteration # 15     ecut=    50.00 Ry     beta= 0.40
     Davidson diagonalization with overlap

---- Real-time Memory Report at c_bands before calling an iterative solver
          1710 MiB given to the printing process from OS
             0 MiB allocation reported by mallinfo(arena+hblkhd)
          4939 MiB available memory on the node where the printing process lives
------------------
     ethr =  5.30E-09,  avg # of iterations =  2.0

     negative rho (up, down):  4.101E-04 0.000E+00

     total cpu time spent up to now is      532.4 secs

     total energy              =   -1006.14134682 Ry
     estimated scf accuracy    <       0.00000051 Ry

     iteration # 16     ecut=    50.00 Ry     beta= 0.40
     Davidson diagonalization with overlap

---- Real-time Memory Report at c_bands before calling an iterative solver
          1710 MiB given to the printing process from OS
             0 MiB allocation reported by mallinfo(arena+hblkhd)
          4946 MiB available memory on the node where the printing process lives
------------------
     ethr =  9.84E-10,  avg # of iterations =  2.0

     negative rho (up, down):  4.046E-04 0.000E+00

     total cpu time spent up to now is      564.1 secs

     total energy              =   -1006.14134682 Ry
     estimated scf accuracy    <       0.00000013 Ry

     iteration # 17     ecut=    50.00 Ry     beta= 0.40
     Davidson diagonalization with overlap

---- Real-time Memory Report at c_bands before calling an iterative solver
          1710 MiB given to the printing process from OS
             0 MiB allocation reported by mallinfo(arena+hblkhd)
          4945 MiB available memory on the node where the printing process lives
------------------
     ethr =  2.47E-10,  avg # of iterations =  2.0

     negative rho (up, down):  4.072E-04 0.000E+00

     total cpu time spent up to now is      595.7 secs

     total energy              =   -1006.14134680 Ry
     estimated scf accuracy    <       0.00000004 Ry

     iteration # 18     ecut=    50.00 Ry     beta= 0.40
     Davidson diagonalization with overlap

---- Real-time Memory Report at c_bands before calling an iterative solver
          1714 MiB given to the printing process from OS
             0 MiB allocation reported by mallinfo(arena+hblkhd)
          4943 MiB available memory on the node where the printing process lives
------------------
     ethr =  7.14E-11,  avg # of iterations =  2.0

     negative rho (up, down):  4.056E-04 0.000E+00

     total cpu time spent up to now is      631.8 secs

     End of self-consistent calculation

          k = 0.0000 0.0000 0.0000 ( 18895 PWs)   bands (ev):

  -131.1058-129.3953 -85.3130 -85.3130 -85.1974 -83.5858 -83.5858 -83.5722
   -23.9749 -21.2627 -12.4430 -12.1297 -12.1297 -12.0537 -12.0537 -11.9089
   -11.4512 -11.4512 -10.3694 -10.3694  -9.9920  -8.3136  -6.5916  -6.5916
    -6.0435  -5.3022  -5.3022  -3.4354  -1.1708  -0.1357   0.4256

     occupation numbers 
     1.0000   1.0000   1.0000   1.0000   1.0000   1.0000   1.0000   1.0000
     1.0000   1.0000   1.0000   1.0000   1.0000   1.0000   1.0000   1.0000
     1.0000   1.0000   1.0000   1.0000   1.0000   1.0000   1.0000   1.0000
     1.0231   0.0046   0.0046   0.0000   0.0000   0.0000   0.0000

          k = 0.0000 0.0962 0.0000 ( 18926 PWs)   bands (ev):

  -131.1058-129.3953 -85.3132 -85.3131 -85.1973 -83.5859 -83.5858 -83.5722
   -23.9455 -21.2466 -12.4303 -12.1386 -12.1145 -12.0896 -12.0516 -11.8176
   -11.4588 -11.4282 -10.3829 -10.3707  -9.9531  -8.2765  -6.8128  -6.6641
    -6.0015  -5.4130  -5.3171  -3.1908  -1.0298  -0.0088   0.5493

     occupation numbers 
     1.0000   1.0000   1.0000   1.0000   1.0000   1.0000   1.0000   1.0000
     1.0000   1.0000   1.0000   1.0000   1.0000   1.0000   1.0000   1.0000
     1.0000   1.0000   1.0000   1.0000   1.0000   1.0000   1.0000   1.0000
     1.0388   0.0398   0.0063   0.0000   0.0000   0.0000   0.0000

          k = 0.0000 0.1925 0.0000 ( 19042 PWs)   bands (ev):

  -131.1058-129.3953 -85.3135 -85.3132 -85.1973 -83.5864 -83.5860 -83.5722
   -23.8643 -21.2022 -12.3972 -12.1727 -12.1595 -12.0747 -12.0453 -11.6131
   -11.4388 -11.3623 -10.4150 -10.3715  -9.8315  -8.2659  -7.1763  -6.8627
    -5.9608  -5.6776  -5.3581  -2.6022  -0.6236   0.3616   0.9087

     occupation numbers 
     1.0000   1.0000   1.0000   1.0000   1.0000   1.0000   1.0000   1.0000
     1.0000   1.0000   1.0000   1.0000   1.0000   1.0000   1.0000   1.0000
     1.0000   1.0000   1.0000   1.0000   1.0000   1.0000   1.0000   1.0000
     1.0574   0.7019   0.0146   0.0000   0.0000   0.0000   0.0000

          k = 0.0000 0.2887 0.0000 ( 19096 PWs)   bands (ev):

  -131.1058-129.3952 -85.3140 -85.3133 -85.1973 -83.5870 -83.5861 -83.5721
   -23.7508 -21.1405 -12.3651 -12.2533 -12.2008 -12.0533 -12.0056 -11.5301
   -11.2668 -11.1986 -10.4469 -10.3636  -9.6137  -8.5823  -7.1670  -7.1388
    -5.9986  -5.9503  -5.4141  -1.8505  -0.0872   0.6280   1.1479

     occupation numbers 
     1.0000   1.0000   1.0000   1.0000   1.0000   1.0000   1.0000   1.0000
     1.0000   1.0000   1.0000   1.0000   1.0000   1.0000   1.0000   1.0000
     1.0000   1.0000   1.0000   1.0000   1.0000   1.0000   1.0000   1.0000
     1.0400   1.0623   0.0405   0.0000   0.0000   0.0000   0.0000

          k = 0.0000 0.3849 0.0000 ( 19138 PWs)   bands (ev):

  -131.1058-129.3952 -85.3145 -85.3135 -85.1972 -83.5875 -83.5863 -83.5721
   -23.6343 -21.0777 -12.3890 -12.2876 -12.2289 -12.0539 -11.9451 -11.4858
   -11.1681 -10.8974 -10.4598 -10.3387  -9.4344  -8.9833  -7.4253  -6.7860
    -6.2329  -5.9872  -5.4699  -1.5507  -0.8248   0.8758   1.8776

     occupation numbers 
     1.0000   1.0000   1.0000   1.0000   1.0000   1.0000   1.0000   1.0000
     1.0000   1.0000   1.0000   1.0000   1.0000   1.0000   1.0000   1.0000
     1.0000   1.0000   1.0000   1.0000   1.0000   1.0000   1.0000   1.0000
     1.0006   1.0451   0.0963   0.0000   0.0000   0.0000   0.0000

          k = 0.0000 0.4811 0.0000 ( 19132 PWs)   bands (ev):

  -131.1057-129.3952 -85.3148 -85.3136 -85.1972 -83.5879 -83.5864 -83.5720
   -23.5471 -21.0309 -12.4370 -12.3008 -12.2299 -12.0565 -11.8989 -11.4252
   -11.0971 -10.6288 -10.4497 -10.3029  -9.8437  -8.7651  -7.6462  -6.5760
    -6.2037  -5.7349  -5.5105  -3.2285  -0.0435   1.6531   2.4336

     occupation numbers 
     1.0000   1.0000   1.0000   1.0000   1.0000   1.0000   1.0000   1.0000
     1.0000   1.0000   1.0000   1.0000   1.0000   1.0000   1.0000   1.0000
     1.0000   1.0000   1.0000   1.0000   1.0000   1.0000   1.0000   1.0000
     1.0012   0.8925   0.1649   0.0000   0.0000   0.0000   0.0000

          k = 0.0000-0.5774 0.0000 ( 19154 PWs)   bands (ev):

  -131.1057-129.3952 -85.3149 -85.3136 -85.1972 -83.5881 -83.5864 -83.5720
   -23.5147 -21.0136 -12.4553 -12.3087 -12.2263 -12.0578 -11.8816 -11.3944
   -11.0722 -10.4638 -10.3183 -10.2845 -10.2493  -8.6102  -7.7304  -6.6028
    -6.2111  -5.5253  -4.7756  -4.6195   0.4235   2.2221   2.2567

     occupation numbers 
     1.0000   1.0000   1.0000   1.0000   1.0000   1.0000   1.0000   1.0000
     1.0000   1.0000   1.0000   1.0000   1.0000   1.0000   1.0000   1.0000
     1.0000   1.0000   1.0000   1.0000   1.0000   1.0000   1.0000   1.0000
     1.0011   0.1969   0.0000   0.0000   0.0000   0.0000   0.0000

          k = 0.0833 0.1443 0.0000 ( 18949 PWs)   bands (ev):

  -131.1058-129.3953 -85.3134 -85.3131 -85.1973 -83.5862 -83.5859 -83.5722
   -23.8902 -21.2163 -12.4069 -12.1554 -12.1377 -12.0920 -12.0506 -11.6660
   -11.4622 -11.3792 -10.4042 -10.3730  -9.8727  -8.2468  -7.0878  -6.8150
    -5.9675  -5.5897  -5.3528  -2.7786  -0.7546   0.2409   0.7925

     occupation numbers 
     1.0000   1.0000   1.0000   1.0000   1.0000   1.0000   1.0000   1.0000
     1.0000   1.0000   1.0000   1.0000   1.0000   1.0000   1.0000   1.0000
     1.0000   1.0000   1.0000   1.0000   1.0000   1.0000   1.0000   1.0000
     1.0542   0.3799   0.0132   0.0000   0.0000   0.0000   0.0000

          k = 0.0833 0.2406 0.0000 ( 19034 PWs)   bands (ev):

  -131.1058-129.3953 -85.3138 -85.3133 -85.1973 -83.5867 -83.5860 -83.5722
   -23.7927 -21.1632 -12.3695 -12.2241 -12.1737 -12.0580 -12.0424 -11.5277
   -11.3685 -11.2570 -10.4331 -10.3713  -9.6992  -8.4027  -7.2642  -7.0482
    -5.9569  -5.8540  -5.4162  -2.1138  -0.2454   0.6966   1.2106

     occupation numbers 
     1.0000   1.0000   1.0000   1.0000   1.0000   1.0000   1.0000   1.0000
     1.0000   1.0000   1.0000   1.0000   1.0000   1.0000   1.0000   1.0000
     1.0000   1.0000   1.0000   1.0000   1.0000   1.0000   1.0000   1.0000
     1.0592   1.0792   0.0419   0.0000   0.0000   0.0000   0.0000

          k = 0.0833 0.3368 0.0000 ( 19101 PWs)   bands (ev):

  -131.1058-129.3952 -85.3143 -85.3134 -85.1972 -83.5873 -83.5863 -83.5721
   -23.6776 -21.1009 -12.3540 -12.2821 -12.2078 -12.0593 -11.9884 -11.4868
   -11.2321 -11.0099 -10.4523 -10.3531  -9.4360  -8.8461  -7.4633  -6.9009
    -6.1259  -5.9761  -5.4862  -1.3561  -0.3393   0.6220   1.5339

     occupation numbers 
     1.0000   1.0000   1.0000   1.0000   1.0000   1.0000   1.0000   1.0000
     1.0000   1.0000   1.0000   1.0000   1.0000   1.0000   1.0000   1.0000
     1.0000   1.0000   1.0000   1.0000   1.0000   1.0000   1.0000   1.0000
     1.0061   1.0502   0.1205   0.0000   0.0000   0.0000   0.0000

          k = 0.0833 0.4330 0.0000 ( 19155 PWs)   bands (ev):

  -131.1057-129.3952 -85.3146 -85.3136 -85.1972 -83.5877 -83.5864 -83.5721
   -23.5754 -21.0459 -12.3981 -12.2836 -12.2265 -12.0651 -11.9358 -11.4258
   -11.1323 -10.7678 -10.4504 -10.3154  -9.5637  -8.9052  -7.7258  -6.5320
    -6.2128  -5.9539  -5.5438  -2.2960  -0.3128   1.3489   2.0555

     occupation numbers 
     1.0000   1.0000   1.0000   1.0000   1.0000   1.0000   1.0000   1.0000
     1.0000   1.0000   1.0000   1.0000   1.0000   1.0000   1.0000   1.0000
     1.0000   1.0000   1.0000   1.0000   1.0000   1.0000   1.0000   1.0000
     1.0010   1.0606   0.2423   0.0000   0.0000   0.0000   0.0000

          k = 0.0833 0.5292 0.0000 ( 19135 PWs)   bands (ev):

  -131.1057-129.3952 -85.3148 -85.3137 -85.1972 -83.5880 -83.5865 -83.5720
   -23.5154 -21.0137 -12.4295 -12.2911 -12.2242 -12.0692 -11.9043 -11.3716
   -11.0747 -10.5284 -10.4364 -10.2810 -10.0223  -8.6486  -7.8811  -6.5499
    -6.1837  -5.5893  -5.2060  -3.9112   0.4263   1.9841   2.1260

     occupation numbers 
     1.0000   1.0000   1.0000   1.0000   1.0000   1.0000   1.0000   1.0000
     1.0000   1.0000   1.0000   1.0000   1.0000   1.0000   1.0000   1.0000
     1.0000   1.0000   1.0000   1.0000   1.0000   1.0000   1.0000   1.0000
     1.0019   0.3786   0.0004   0.0000   0.0000   0.0000   0.0000

          k = 0.1667 0.2887 0.0000 ( 19063 PWs)   bands (ev):

  -131.1058-129.3952 -85.3141 -85.3134 -85.1973 -83.5871 -83.5862 -83.5721
   -23.6934 -21.1093 -12.3304 -12.2844 -12.1825 -12.0635 -12.0243 -11.4672
   -11.2859 -11.0432 -10.4448 -10.3603  -9.4565  -8.7330  -7.5627  -6.9154
    -6.0516  -5.9730  -5.5193  -1.4202   0.2066   0.7757   1.4891

     occupation numbers 
     1.0000   1.0000   1.0000   1.0000   1.0000   1.0000   1.0000   1.0000
     1.0000   1.0000   1.0000   1.0000   1.0000   1.0000   1.0000   1.0000
     1.0000   1.0000   1.0000   1.0000   1.0000   1.0000   1.0000   1.0000
     1.0206   1.0516   0.1835   0.0000   0.0000   0.0000   0.0000

          k = 0.1667 0.3849 0.0000 ( 19126 PWs)   bands (ev):

  -131.1057-129.3952 -85.3145 -85.3136 -85.1972 -83.5875 -83.5865 -83.5721
   -23.5922 -21.0546 -12.3397 -12.2855 -12.1982 -12.0796 -11.9908 -11.3892
   -11.1866 -10.8579 -10.4426 -10.3221  -9.2758  -9.0338  -7.9417  -6.4929
    -6.1748  -6.0117  -5.6220  -1.2760  -0.3124   0.6734   1.2508

     occupation numbers 
     1.0000   1.0000   1.0000   1.0000   1.0000   1.0000   1.0000   1.0000
     1.0000   1.0000   1.0000   1.0000   1.0000   1.0000   1.0000   1.0000
     1.0000   1.0000   1.0000   1.0000   1.0000   1.0000   1.0000   1.0000
     1.0023   1.0345   0.4938   0.0000   0.0000   0.0000   0.0000

          k = 0.1667 0.4811 0.0000 ( 19131 PWs)   bands (ev):

  -131.1057-129.3952 -85.3147 -85.3138 -85.1972 -83.5878 -83.5867 -83.5720
   -23.5168 -21.0139 -12.3684 -12.2633 -12.2095 -12.0939 -11.9604 -11.3162
   -11.0766 -10.7036 -10.4290 -10.2729  -9.7321  -8.7542  -8.1866  -6.4242
    -6.1252  -5.7551  -5.4626  -2.8678  -0.0029   0.8517   1.9928

     occupation numbers 
     1.0000   1.0000   1.0000   1.0000   1.0000   1.0000   1.0000   1.0000
     1.0000   1.0000   1.0000   1.0000   1.0000   1.0000   1.0000   1.0000
     1.0000   1.0000   1.0000   1.0000   1.0000   1.0000   1.0000   1.0000
     1.0062   0.9462   0.0867   0.0000   0.0000   0.0000   0.0000

          k = 0.1667 0.5774 0.0000 ( 19115 PWs)   bands (ev):

  -131.1057-129.3952 -85.3147 -85.3138 -85.1972 -83.5879 -83.5867 -83.5720
   -23.4889 -20.9989 -12.3775 -12.2590 -12.2109 -12.0996 -11.9482 -11.2894
   -11.0276 -10.5591 -10.4310 -10.2505 -10.0154  -8.6422  -8.2507  -6.4595
    -6.1491  -5.7594  -4.4626  -4.2345  -0.0548   1.4578   2.3890

     occupation numbers 
     1.0000   1.0000   1.0000   1.0000   1.0000   1.0000   1.0000   1.0000
     1.0000   1.0000   1.0000   1.0000   1.0000   1.0000   1.0000   1.0000
     1.0000   1.0000   1.0000   1.0000   1.0000   1.0000   1.0000   1.0000
     1.0039   0.9563   0.0000   0.0000   0.0000   0.0000   0.0000

          k = 0.2500 0.4330 0.0000 ( 19111 PWs)   bands (ev):

  -131.1057-129.3952 -85.3146 -85.3139 -85.1972 -83.5876 -83.5868 -83.5720
   -23.5175 -21.0140 -12.3245 -12.2674 -12.1885 -12.1029 -12.0007 -11.2811
   -11.0733 -10.7864 -10.4235 -10.2685  -9.5523  -8.8567  -8.3369  -6.3383
    -6.0875  -5.8713  -5.5411  -1.9108  -1.0356   0.7089   1.9575

     occupation numbers 
     1.0000   1.0000   1.0000   1.0000   1.0000   1.0000   1.0000   1.0000
     1.0000   1.0000   1.0000   1.0000   1.0000   1.0000   1.0000   1.0000
     1.0000   1.0000   1.0000   1.0000   1.0000   1.0000   1.0000   1.0000
     1.0119   1.0830   0.2354   0.0000   0.0000   0.0000   0.0000

          k = 0.2500 0.5292 0.0000 ( 19130 PWs)   bands (ev):

  -131.1057-129.3952 -85.3146 -85.3141 -85.1972 -83.5877 -83.5870 -83.5720
   -23.4741 -20.9903 -12.3110 -12.2466 -12.1965 -12.1113 -12.0087 -11.2402
   -10.9130 -10.6997 -10.4241 -10.2157  -9.9091  -8.8355  -8.4064  -6.3277
    -6.1168  -5.9515  -4.5791  -3.1965  -1.6097   1.7501   2.6497

     occupation numbers 
     1.0000   1.0000   1.0000   1.0000   1.0000   1.0000   1.0000   1.0000
     1.0000   1.0000   1.0000   1.0000   1.0000   1.0000   1.0000   1.0000
     1.0000   1.0000   1.0000   1.0000   1.0000   1.0000   1.0000   1.0001
     1.0072   1.0617   0.0000   0.0000   0.0000   0.0000   0.0000

          k = 0.3333 0.5774 0.0000 ( 19131 PWs)   bands (ev):

  -131.1057-129.3952 -85.3144 -85.3144 -85.1972 -83.5875 -83.5873 -83.5720
   -23.4585 -20.9817 -12.2591 -12.2415 -12.2276 -12.0680 -12.0678 -11.2235
   -10.7519 -10.7151 -10.4575 -10.1368 -10.0634  -8.9690  -8.3973  -6.1992
    -6.1292  -6.1136  -3.7603  -3.0145  -3.0080   2.4485   2.8867

     occupation numbers 
     1.0000   1.0000   1.0000   1.0000   1.0000   1.0000   1.0000   1.0000
     1.0000   1.0000   1.0000   1.0000   1.0000   1.0000   1.0000   1.0000
     1.0000   1.0000   1.0000   1.0000   1.0000   1.0000   1.0000   1.0014
     1.0058   1.0077   0.0000   0.0000   0.0000   0.0000   0.0000

     the Fermi energy is    -5.5958 ev

!    total energy              =   -1006.14134681 Ry
     estimated scf accuracy    <          9.6E-09 Ry
     smearing contrib. (-TS)   =       0.00053874 Ry
     internal energy E=F+TS    =   -1006.14188555 Ry

     The total energy is F=E-TS. E is the sum of the following terms:
     one-electron contribution =  -14669.41896324 Ry
     hartree contribution      =    7327.58517689 Ry
     xc contribution           =     -98.83118186 Ry
     ewald contribution        =    6453.59460184 Ry
     one-center paw contrib.   =     -19.07151917 Ry
      -> PAW hartree energy AE =      48.94494606 Ry
      -> PAW hartree energy PS =     -48.72634224 Ry
      -> PAW xc energy AE      =     -32.83305459 Ry
      -> PAW xc energy PS      =      13.54293161 Ry
      -> total E_H with PAW    =    7327.80378070 Ry
      -> total E_XC with PAW   =    -118.12130485 Ry

     convergence has been achieved in  18 iterations

     negative rho (up, down):  4.056E-04 0.000E+00

     Forces acting on atoms (cartesian axes, Ry/au):

     atom    1 type  2   force =     0.00000000    0.00000000    0.07631383
     atom    2 type  2   force =     0.00000000    0.00000000    0.00730778
     atom    3 type  1   force =     0.00000000    0.00000000   -0.03760940
     atom    4 type  1   force =     0.00000000    0.00000000   -0.04601221
     The non-local contrib.  to forces
     atom    1 type  2   force =     0.00000000    0.00000000   -0.64238429
     atom    2 type  2   force =     0.00000000   -0.00000000   -0.53268029
     atom    3 type  1   force =     0.00000000    0.00000000   -1.16878026
     atom    4 type  1   force =     0.00000000    0.00000000   -0.24414494
     The ionic contribution  to forces
     atom    1 type  2   force =    -0.00000057    0.00000033  116.52502390
     atom    2 type  2   force =     0.00000005   -0.00000003 -223.08096282
     atom    3 type  1   force =    -0.00000000    0.00000000   97.25609218
     atom    4 type  1   force =     0.00000053   -0.00000030    9.29984674
     The local contribution  to forces
     atom    1 type  2   force =    -0.00001936    0.00001118 -115.80672271
     atom    2 type  2   force =     0.00001961   -0.00001132  223.62064862
     atom    3 type  1   force =    -0.00000139    0.00000080  -96.13811164
     atom    4 type  1   force =     0.00000113   -0.00000065   -9.10458731
     The core correction contribution to forces
     atom    1 type  2   force =     0.00000000    0.00000000    0.00000000
     atom    2 type  2   force =     0.00000000    0.00000000    0.00000000
     atom    3 type  1   force =    -0.00000000    0.00000000    0.01319678
     atom    4 type  1   force =     0.00000000   -0.00000000    0.00281030
     The Hubbard contrib.    to forces
     atom    1 type  2   force =     0.00000000    0.00000000    0.00000000
     atom    2 type  2   force =     0.00000000    0.00000000    0.00000000
     atom    3 type  1   force =     0.00000000    0.00000000    0.00000000
     atom    4 type  1   force =     0.00000000    0.00000000    0.00000000
     The SCF correction term to forces
     atom    1 type  2   force =     0.00000000   -0.00000000    0.00050988
     atom    2 type  2   force =    -0.00000000    0.00000000    0.00041521
     atom    3 type  1   force =     0.00000000   -0.00000000    0.00010647
     atom    4 type  1   force =    -0.00000000    0.00000000    0.00017595

     Total force =     0.096999     Total SCF correction =     0.000689


     Computing stress (Cartesian axis) and pressure


     negative rho (up, down):  4.056E-04 0.000E+00
          total   stress  (Ry/bohr**3)                   (kbar)     P=       -5.00
  -0.00003022   0.00000000   0.00000000           -4.44        0.00        0.00
   0.00000000  -0.00003022   0.00000000            0.00       -4.44        0.00
   0.00000000   0.00000000  -0.00004158            0.00        0.00       -6.12

     kinetic stress (kbar)   3457.61      0.00      0.00
                                0.00   3457.61     -0.00
                                0.00     -0.00   3501.23

     local   stress (kbar)-636296.07     -0.00      0.00
                               -0.00-636296.07     -0.00
                                0.00     -0.00 632875.80

     nonloc. stress (kbar)    -65.53      0.00      0.00
                                0.00    -65.53     -0.00
                                0.00     -0.00    -49.65

     hartree stress (kbar) 323211.67      0.00     -0.00
                                0.00 323211.67     -0.00
                               -0.00     -0.00-309415.70

     exc-cor stress (kbar)  -1412.70      0.00     -0.00
                                0.00  -1412.70      0.00
                               -0.00      0.00  -1410.99

     corecor stress (kbar)    -38.92     -0.00      0.00
                               -0.00    -38.92     -0.00
                                0.00     -0.00    -39.21

     ewald   stress (kbar) 311139.49      0.00     -0.00
                                0.00 311139.49      0.00
                               -0.00      0.00-325467.60

     hubbard stress (kbar)      0.00      0.00      0.00
                                0.00      0.00      0.00
                                0.00      0.00      0.00

     DFT-D   stress (kbar)      0.00      0.00      0.00
                                0.00      0.00      0.00
                                0.00      0.00      0.00

     XDM     stress (kbar)      0.00      0.00      0.00
                                0.00      0.00      0.00
                                0.00      0.00      0.00

     dft-nl  stress (kbar)      0.00      0.00      0.00
                                0.00      0.00      0.00
                                0.00      0.00      0.00

     TS-vdW  stress (kbar)      0.00      0.00      0.00
                                0.00      0.00      0.00
                                0.00      0.00      0.00

     MDB     stress (kbar)      0.00      0.00      0.00
                                0.00      0.00      0.00
                                0.00      0.00      0.00

     3D-RISM stress (kbar)      0.00      0.00      0.00
                                0.00      0.00      0.00
                                0.00      0.00      0.00


     Writing all to output data dir ./temp_hexag/aiida.save/ :
     XML data file, charge density, pseudopotentials, collected wavefunctions

     init_run     :    181.10s CPU     12.05s WALL (       1 calls)
     electrons    :   9548.91s CPU    619.56s WALL (       1 calls)
     forces       :     43.08s CPU      5.05s WALL (       1 calls)
     stress       :    109.13s CPU     12.38s WALL (       1 calls)

     Called by init_run:
     wfcinit      :    173.88s CPU     10.25s WALL (       1 calls)
     wfcinit:atom :      1.51s CPU      0.06s WALL (      19 calls)
     wfcinit:wfcr :    165.89s CPU      9.62s WALL (      19 calls)
     potinit      :      2.79s CPU      0.32s WALL (       1 calls)
     hinit0       :      1.43s CPU      0.27s WALL (       1 calls)

     Called by electrons:
     c_bands      :   7906.29s CPU    499.17s WALL (      18 calls)
     sum_band     :   1531.82s CPU     94.50s WALL (      18 calls)
     v_of_rho     :     28.12s CPU      4.13s WALL (      19 calls)
     v_h          :      7.16s CPU      0.61s WALL (      19 calls)
     v_xc         :     23.11s CPU      3.87s WALL (      21 calls)
     newd         :     40.42s CPU     20.04s WALL (      19 calls)
     PAW_pot      :     27.57s CPU      1.20s WALL (      19 calls)
     mix_rho      :     12.06s CPU      1.09s WALL (      18 calls)

     Called by c_bands:
     init_us_2    :     49.27s CPU      4.68s WALL (     741 calls)
     cegterg      :   7857.79s CPU    493.51s WALL (     342 calls)

     Called by sum_band:
     sum_band:wei :      0.00s CPU      0.00s WALL (      18 calls)
     sum_band:loo :   1498.86s CPU     70.95s WALL (      18 calls)
     sum_band:buf :      3.34s CPU      0.41s WALL (     342 calls)
     sum_band:ini :     24.56s CPU      1.60s WALL (     342 calls)
     sum_band:cal :    129.39s CPU     11.83s WALL (     342 calls)
     sum_band:bec :     17.81s CPU      1.38s WALL (     342 calls)
     addusdens    :     28.41s CPU     22.81s WALL (      18 calls)
                                        0.00s GPU  (      18 calls)
     addusd:skk   :      1.62s CPU      0.07s WALL (      36 calls)
                                        0.00s GPU  (      36 calls)

     Called by *egterg:
     cdiaghg      :     13.41s CPU      1.31s WALL (    1755 calls)
     cegterg:over :    119.69s CPU     31.17s WALL (    1413 calls)
     cegterg:upda :    263.14s CPU     28.05s WALL (    1413 calls)
     cegterg:last :     91.44s CPU     53.76s WALL (     744 calls)
     h_psi        :   7074.28s CPU    335.14s WALL (    1774 calls)
     s_psi        :    345.66s CPU     31.78s WALL (    1774 calls)
     g_psi        :     25.54s CPU      2.17s WALL (    1413 calls)

     Called by h_psi:
     h_psi:calbec :    432.79s CPU     31.44s WALL (    1774 calls)
     vloc_psi     :   6507.82s CPU    274.68s WALL (    1774 calls)
     add_vuspsi   :     91.07s CPU     26.88s WALL (    1774 calls)

     General routines
     calbec       :    591.46s CPU     46.35s WALL (    2211 calls)
     fft          :     22.03s CPU      3.84s WALL (     270 calls)
     ffts         :      2.53s CPU      0.17s WALL (      37 calls)
     fftw         :   5535.34s CPU    233.49s WALL (   64588 calls)
     interpolate  :      5.13s CPU      0.43s WALL (      19 calls)

     Parallel routines

     PAW routines
     PAW_pot      :     27.57s CPU      1.20s WALL (      19 calls)
     PAW_symme    :      0.00s CPU      0.00s WALL (      37 calls)

     PWSCF        :      2h44m CPU  10m52.01s WALL


   This run was terminated on:  21:24:54  14Jun2024            

=------------------------------------------------------------------------------=
   JOB DONE.
=------------------------------------------------------------------------------=
