
     Program PWSCF v.7.3.1 starts on 14Jun2024 at 20:11:18 

     This program is part of the open-source Quantum ESPRESSO suite
     for quantum simulation of materials; please cite
         "P. Giannozzi et al., J. Phys.:Condens. Matter 21 395502 (2009);
         "P. Giannozzi et al., J. Phys.:Condens. Matter 29 465901 (2017);
         "P. Giannozzi et al., J. Chem. Phys. 152 154105 (2020);
          URL http://www.quantum-espresso.org", 
     in publications or presentations arising from this work. More details at
     http://www.quantum-espresso.org/quote

     Parallel version (MPI & OpenMP), running on      24 processor cores
     Number of MPI processes:                 1
     Threads/MPI process:                    24

     MPI processes distributed on     1 nodes
     5509 MiB available memory on the printing compute node when the environment starts

     Waiting for input...
     Reading input from standard input

     Current dimensions of program PWSCF are:
     Max number of different atomic species (ntypx) = 10
     Max number of k-points (npk) =  40000
     Max angular momentum in pseudopotentials (lmaxx) =  4
     file O.pbe-n-kjpaw_psl.0.1.UPF: wavefunction(s)  2P renormalized
     Message from routine setup:
     using ibrav=0 with symmetry is DISCOURAGED, use correct ibrav instead

     Subspace diagonalization in iterative solution of the eigenvalue problem:
     a serial algorithm will be used


     G-vector sticks info
     --------------------
     sticks:   dense  smooth     PW     G-vecs:    dense   smooth      PW
     Sum        1039     511    151               432659   152803   25137

     Using Slab Decomposition



     bravais-lattice index     =            0
     lattice parameter (alat)  =       6.1177  a.u.
     unit-cell volume          =    3198.5179 (a.u.)^3
     number of atoms/cell      =            5
     number of atomic types    =            3
     number of electrons       =        53.00
     number of Kohn-Sham states=           32
     kinetic-energy cutoff     =      50.0000  Ry
     charge density cutoff     =     400.0000  Ry
     scf convergence threshold =      2.0E-08
     mixing beta               =       0.4000
     number of iterations used =            8  plain     mixing
     Exchange-correlation= PBE
                           (   1   4   3   4   0   0   0)

     celldm(1)=   6.117707  celldm(2)=   0.000000  celldm(3)=   0.000000
     celldm(4)=   0.000000  celldm(5)=   0.000000  celldm(6)=   0.000000

     crystal axes: (cart. coord. in units of alat)
               a(1) = (   1.000000   0.000000   0.000000 )  
               a(2) = (  -0.500000   0.866025   0.000000 )  
               a(3) = (   0.000000   0.000000  16.130661 )  

     reciprocal axes: (cart. coord. in units 2 pi/alat)
               b(1) = (  1.000000  0.577350 -0.000000 )  
               b(2) = (  0.000000  1.154701  0.000000 )  
               b(3) = (  0.000000 -0.000000  0.061994 )  


     PseudoPot. # 1 for O  read from file:
     ../SSSP_1.3.0_PBE_efficiency/O.pbe-n-kjpaw_psl.0.1.UPF
     MD5 check sum: 0234752ac141de4415c5fc33072bef88
     Pseudo is Projector augmented-wave + core cor, Zval =  6.0
     Generated using "atomic" code by A. Dal Corso  v.5.0.99 svn rev. 10869
     Shape of augmentation charge: BESSEL
     Using radial grid of 1095 points,  4 beta functions with: 
                l(1) =   0
                l(2) =   0
                l(3) =   1
                l(4) =   1
     Q(r) pseudized with 0 coefficients 


     PseudoPot. # 2 for Zn read from file:
     ../SSSP_1.3.0_PBE_efficiency/Zn_pbe_v1.uspp.F.UPF
     MD5 check sum: df62231357ef9e81f77b2b3087fa5675
     Pseudo is Ultrasoft, Zval = 20.0
     Generated by new atomic code, or converted to UPF format
     Using radial grid of  943 points,  6 beta functions with: 
                l(1) =   0
                l(2) =   0
                l(3) =   1
                l(4) =   1
                l(5) =   2
                l(6) =   2
     Q(r) pseudized with  8 coefficients,  rinner =    1.100   1.100   1.100
                                                       1.100   1.100

     PseudoPot. # 3 for H  read from file:
     ../SSSP_1.3.0_PBE_efficiency/H.pbe-rrkjus_psl.1.0.0.UPF
     MD5 check sum: f52b6d4d1c606e5624b1dc7b2218f220
     Pseudo is Ultrasoft, Zval =  1.0
     Generated using "atomic" code by A. Dal Corso  v.5.1
     Using radial grid of  929 points,  2 beta functions with: 
                l(1) =   0
                l(2) =   0
     Q(r) pseudized with 0 coefficients 


     atomic species   valence    mass     pseudopotential
     O                 6.00    15.99940     O ( 1.00)
     Zn               20.00    65.38000     Zn( 1.00)
     H                 1.00     1.00794     H ( 1.00)

      6 Sym. Ops. (no inversion) found


                                    s                        frac. trans.

      isym =  1     identity                                     

 cryst.   s( 1) = (     1          0          0      )
                  (     0          1          0      )
                  (     0          0          1      )

 cart.    s( 1) = (  1.0000000  0.0000000  0.0000000 )
                  (  0.0000000  1.0000000  0.0000000 )
                  (  0.0000000  0.0000000  1.0000000 )


      isym =  2     120 deg rotation - cryst. axis [0,0,1]       

 cryst.   s( 2) = (     0          1          0      )
                  (    -1         -1          0      )
                  (     0          0          1      )

 cart.    s( 2) = ( -0.5000000 -0.8660254  0.0000000 )
                  (  0.8660254 -0.5000000  0.0000000 )
                  (  0.0000000  0.0000000  1.0000000 )


      isym =  3     120 deg rotation - cryst. axis [0,0,-1]      

 cryst.   s( 3) = (    -1         -1          0      )
                  (     1          0          0      )
                  (     0          0          1      )

 cart.    s( 3) = ( -0.5000000  0.8660254  0.0000000 )
                  ( -0.8660254 -0.5000000  0.0000000 )
                  (  0.0000000  0.0000000  1.0000000 )


      isym =  4     inv. 180 deg rotation - cart. axis [1,0,0]   

 cryst.   s( 4) = (    -1          0          0      )
                  (     1          1          0      )
                  (     0          0          1      )

 cart.    s( 4) = ( -1.0000000  0.0000000  0.0000000 )
                  (  0.0000000  1.0000000  0.0000000 )
                  (  0.0000000  0.0000000  1.0000000 )


      isym =  5     inv. 180 deg rotation - cryst. axis [0,1,0]  

 cryst.   s( 5) = (     1          1          0      )
                  (     0         -1          0      )
                  (     0          0          1      )

 cart.    s( 5) = (  0.5000000  0.8660254  0.0000000 )
                  (  0.8660254 -0.5000000  0.0000000 )
                  (  0.0000000  0.0000000  1.0000000 )


      isym =  6     inv. 180 deg rotation - cryst. axis [1,1,0]  

 cryst.   s( 6) = (     0         -1          0      )
                  (    -1          0          0      )
                  (     0          0          1      )

 cart.    s( 6) = (  0.5000000 -0.8660254  0.0000000 )
                  ( -0.8660254 -0.5000000  0.0000000 )
                  (  0.0000000  0.0000000  1.0000000 )


   Cartesian axes

     site n.     atom                  positions (alat units)
         1        Zn     tau(   1) = (   0.5000000   0.2886751   0.8074875  )
         2        Zn     tau(   2) = (  -0.0000000   0.5773503   0.0009545  )
         3        O      tau(   3) = (   0.5000000   0.2886751   1.4190438  )
         4        O      tau(   4) = (  -0.0000000   0.5773503   0.6125107  )
         5        H      tau(   5) = (   0.5000000   0.2886751   1.6937194  )

   Crystallographic axes

     site n.     atom                  positions (cryst. coord.)
         1        Zn     tau(   1) = (  0.6666667  0.3333333  0.0500592  )
         2        Zn     tau(   2) = (  0.3333333  0.6666667  0.0000592  )
         3        O      tau(   3) = (  0.6666667  0.3333333  0.0879718  )
         4        O      tau(   4) = (  0.3333333  0.6666667  0.0379718  )
         5        H      tau(   5) = (  0.6666667  0.3333333  0.1050000  )

     number of k points=    19  Marzari-Vanderbilt smearing, width (Ry)=  0.0147
                       cart. coord. in units 2pi/alat
        k(    1) = (   0.0000000   0.0000000   0.0000000), wk =   0.0138889
        k(    2) = (   0.0000000   0.0962250   0.0000000), wk =   0.0833333
        k(    3) = (   0.0000000   0.1924501   0.0000000), wk =   0.0833333
        k(    4) = (   0.0000000   0.2886751   0.0000000), wk =   0.0833333
        k(    5) = (   0.0000000   0.3849002   0.0000000), wk =   0.0833333
        k(    6) = (   0.0000000   0.4811252   0.0000000), wk =   0.0833333
        k(    7) = (   0.0000000  -0.5773503   0.0000000), wk =   0.0416667
        k(    8) = (   0.0833333   0.1443376   0.0000000), wk =   0.0833333
        k(    9) = (   0.0833333   0.2405626   0.0000000), wk =   0.1666667
        k(   10) = (   0.0833333   0.3367877   0.0000000), wk =   0.1666667
        k(   11) = (   0.0833333   0.4330127   0.0000000), wk =   0.1666667
        k(   12) = (   0.0833333   0.5292377   0.0000000), wk =   0.1666667
        k(   13) = (   0.1666667   0.2886751   0.0000000), wk =   0.0833333
        k(   14) = (   0.1666667   0.3849002   0.0000000), wk =   0.1666667
        k(   15) = (   0.1666667   0.4811252   0.0000000), wk =   0.1666667
        k(   16) = (   0.1666667   0.5773503   0.0000000), wk =   0.0833333
        k(   17) = (   0.2500000   0.4330127   0.0000000), wk =   0.0833333
        k(   18) = (   0.2500000   0.5292377   0.0000000), wk =   0.1666667
        k(   19) = (   0.3333333   0.5773503   0.0000000), wk =   0.0277778

                       cryst. coord.
        k(    1) = (   0.0000000   0.0000000   0.0000000), wk =   0.0138889
        k(    2) = (   0.0000000   0.0833333   0.0000000), wk =   0.0833333
        k(    3) = (   0.0000000   0.1666667   0.0000000), wk =   0.0833333
        k(    4) = (   0.0000000   0.2500000   0.0000000), wk =   0.0833333
        k(    5) = (   0.0000000   0.3333333   0.0000000), wk =   0.0833333
        k(    6) = (   0.0000000   0.4166667   0.0000000), wk =   0.0833333
        k(    7) = (   0.0000000  -0.5000000   0.0000000), wk =   0.0416667
        k(    8) = (   0.0833333   0.0833333   0.0000000), wk =   0.0833333
        k(    9) = (   0.0833333   0.1666667   0.0000000), wk =   0.1666667
        k(   10) = (   0.0833333   0.2500000   0.0000000), wk =   0.1666667
        k(   11) = (   0.0833333   0.3333333   0.0000000), wk =   0.1666667
        k(   12) = (   0.0833333   0.4166667   0.0000000), wk =   0.1666667
        k(   13) = (   0.1666667   0.1666667   0.0000000), wk =   0.0833333
        k(   14) = (   0.1666667   0.2500000   0.0000000), wk =   0.1666667
        k(   15) = (   0.1666667   0.3333333   0.0000000), wk =   0.1666667
        k(   16) = (   0.1666667   0.4166667   0.0000000), wk =   0.0833333
        k(   17) = (   0.2500000   0.2500000   0.0000000), wk =   0.0833333
        k(   18) = (   0.2500000   0.3333333   0.0000000), wk =   0.1666667
        k(   19) = (   0.3333333   0.3333333   0.0000000), wk =   0.0277778

     Dense  grid:   432659 G-vectors     FFT dimensions: (  40,  40, 640)

     Smooth grid:   152803 G-vectors     FFT dimensions: (  27,  27, 450)

     Dynamical RAM for                 wfc:       9.32 MB

     Dynamical RAM for     wfc (w. buffer):     186.48 MB

     Dynamical RAM for           str. fact:      19.81 MB

     Dynamical RAM for           local pot:       0.00 MB

     Dynamical RAM for          nlocal pot:      15.73 MB

     Dynamical RAM for                qrad:       4.82 MB

     Dynamical RAM for          rho,v,vnew:      43.24 MB

     Dynamical RAM for               rhoin:      14.41 MB

     Dynamical RAM for            rho*nmix:     105.63 MB

     Dynamical RAM for           G-vectors:      25.92 MB

     Dynamical RAM for          h,s,v(r/c):       0.19 MB

     Dynamical RAM for          <psi|beta>:       0.03 MB

     Dynamical RAM for                 psi:      18.65 MB

     Dynamical RAM for                hpsi:      18.65 MB

     Dynamical RAM for                spsi:      18.65 MB

     Dynamical RAM for      wfcinit/wfcrot:      20.43 MB

     Dynamical RAM for           addusdens:    1241.15 MB

     Dynamical RAM for          addusforce:    1257.66 MB

     Dynamical RAM for         addusstress:    1326.97 MB

     Estimated static dynamical RAM per process >     375.89 MB

     Estimated max dynamical RAM per process >       1.77 GB

     Initial potential from superposition of free atoms

     starting charge      52.9997, renormalised to      53.0000

     negative rho (up, down):  3.509E-04 0.000E+00
     Starting wfcs are   35 randomized atomic wfcs
     Checking if some PAW data can be deallocated... 

     total cpu time spent up to now is       12.5 secs

     Self-consistent Calculation

     iteration #  1     ecut=    50.00 Ry     beta= 0.40
     Davidson diagonalization with overlap

---- Real-time Memory Report at c_bands before calling an iterative solver
          1408 MiB given to the printing process from OS
             0 MiB allocation reported by mallinfo(arena+hblkhd)
          5128 MiB available memory on the node where the printing process lives
------------------
     ethr =  1.00E-02,  avg # of iterations =  5.4

     negative rho (up, down):  2.015E-04 0.000E+00

     total cpu time spent up to now is       45.2 secs

     total energy              =   -1006.71612444 Ry
     estimated scf accuracy    <       2.05440192 Ry

     iteration #  2     ecut=    50.00 Ry     beta= 0.40
     Davidson diagonalization with overlap

---- Real-time Memory Report at c_bands before calling an iterative solver
          1680 MiB given to the printing process from OS
             0 MiB allocation reported by mallinfo(arena+hblkhd)
          5064 MiB available memory on the node where the printing process lives
------------------
     ethr =  3.88E-03,  avg # of iterations =  9.0

     negative rho (up, down):  4.039E-04 0.000E+00

     total cpu time spent up to now is       88.6 secs

     total energy              =   -1002.40020888 Ry
     estimated scf accuracy    <     114.01606609 Ry

     iteration #  3     ecut=    50.00 Ry     beta= 0.40
     Davidson diagonalization with overlap

---- Real-time Memory Report at c_bands before calling an iterative solver
          1685 MiB given to the printing process from OS
             0 MiB allocation reported by mallinfo(arena+hblkhd)
          5050 MiB available memory on the node where the printing process lives
------------------
     ethr =  3.88E-03,  avg # of iterations =  7.1

     negative rho (up, down):  2.508E-04 0.000E+00

     total cpu time spent up to now is      134.0 secs

     total energy              =   -1007.54988112 Ry
     estimated scf accuracy    <       1.00308460 Ry

     iteration #  4     ecut=    50.00 Ry     beta= 0.40
     Davidson diagonalization with overlap

---- Real-time Memory Report at c_bands before calling an iterative solver
          1690 MiB given to the printing process from OS
             0 MiB allocation reported by mallinfo(arena+hblkhd)
          5049 MiB available memory on the node where the printing process lives
------------------
     ethr =  1.89E-03,  avg # of iterations =  1.3

     negative rho (up, down):  2.152E-04 0.000E+00

     total cpu time spent up to now is      159.8 secs

     total energy              =   -1007.50609926 Ry
     estimated scf accuracy    <       0.72448646 Ry

     iteration #  5     ecut=    50.00 Ry     beta= 0.40
     Davidson diagonalization with overlap

---- Real-time Memory Report at c_bands before calling an iterative solver
          1694 MiB given to the printing process from OS
             0 MiB allocation reported by mallinfo(arena+hblkhd)
          4942 MiB available memory on the node where the printing process lives
------------------
     ethr =  1.37E-03,  avg # of iterations =  1.7

     negative rho (up, down):  2.216E-04 0.000E+00

     total cpu time spent up to now is      186.4 secs

     total energy              =   -1007.51845253 Ry
     estimated scf accuracy    <       0.14796477 Ry

     iteration #  6     ecut=    50.00 Ry     beta= 0.40
     Davidson diagonalization with overlap

---- Real-time Memory Report at c_bands before calling an iterative solver
          1699 MiB given to the printing process from OS
             0 MiB allocation reported by mallinfo(arena+hblkhd)
          5038 MiB available memory on the node where the printing process lives
------------------
     ethr =  2.79E-04,  avg # of iterations =  2.6

     negative rho (up, down):  2.311E-04 0.000E+00

     total cpu time spent up to now is      215.3 secs

     total energy              =   -1007.51006812 Ry
     estimated scf accuracy    <       0.16184608 Ry

     iteration #  7     ecut=    50.00 Ry     beta= 0.40
     Davidson diagonalization with overlap

---- Real-time Memory Report at c_bands before calling an iterative solver
          1703 MiB given to the printing process from OS
             0 MiB allocation reported by mallinfo(arena+hblkhd)
          5031 MiB available memory on the node where the printing process lives
------------------
     ethr =  2.79E-04,  avg # of iterations =  3.8

     negative rho (up, down):  2.522E-04 0.000E+00

     total cpu time spent up to now is      246.7 secs

     total energy              =   -1007.51218862 Ry
     estimated scf accuracy    <       0.34128208 Ry

     iteration #  8     ecut=    50.00 Ry     beta= 0.40
     Davidson diagonalization with overlap

---- Real-time Memory Report at c_bands before calling an iterative solver
          1709 MiB given to the printing process from OS
             0 MiB allocation reported by mallinfo(arena+hblkhd)
          5023 MiB available memory on the node where the printing process lives
------------------
     ethr =  2.79E-04,  avg # of iterations =  3.7

     negative rho (up, down):  2.657E-04 0.000E+00

     total cpu time spent up to now is      276.6 secs

     total energy              =   -1007.50279863 Ry
     estimated scf accuracy    <       0.12957991 Ry

     iteration #  9     ecut=    50.00 Ry     beta= 0.40
     Davidson diagonalization with overlap

---- Real-time Memory Report at c_bands before calling an iterative solver
          1714 MiB given to the printing process from OS
             0 MiB allocation reported by mallinfo(arena+hblkhd)
          5013 MiB available memory on the node where the printing process lives
------------------
     ethr =  2.44E-04,  avg # of iterations =  4.4

     negative rho (up, down):  2.654E-04 0.000E+00

     total cpu time spent up to now is      308.3 secs

     total energy              =   -1007.50605589 Ry
     estimated scf accuracy    <       0.01748596 Ry

     iteration # 10     ecut=    50.00 Ry     beta= 0.40
     Davidson diagonalization with overlap

---- Real-time Memory Report at c_bands before calling an iterative solver
          1718 MiB given to the printing process from OS
             0 MiB allocation reported by mallinfo(arena+hblkhd)
          5010 MiB available memory on the node where the printing process lives
------------------
     c_bands:  1 eigenvalues not converged
     ethr =  3.30E-05,  avg # of iterations =  7.9

     negative rho (up, down):  2.850E-04 0.000E+00

     total cpu time spent up to now is      342.3 secs

     total energy              =   -1007.50521026 Ry
     estimated scf accuracy    <       0.05421367 Ry

     iteration # 11     ecut=    50.00 Ry     beta= 0.40
     Davidson diagonalization with overlap

---- Real-time Memory Report at c_bands before calling an iterative solver
          1721 MiB given to the printing process from OS
             0 MiB allocation reported by mallinfo(arena+hblkhd)
          5007 MiB available memory on the node where the printing process lives
------------------
     ethr =  3.30E-05,  avg # of iterations =  8.4

     negative rho (up, down):  3.070E-04 0.000E+00

     total cpu time spent up to now is      376.3 secs

     total energy              =   -1007.50693772 Ry
     estimated scf accuracy    <       0.00396252 Ry

     iteration # 12     ecut=    50.00 Ry     beta= 0.40
     Davidson diagonalization with overlap

---- Real-time Memory Report at c_bands before calling an iterative solver
          1722 MiB given to the printing process from OS
             0 MiB allocation reported by mallinfo(arena+hblkhd)
          5011 MiB available memory on the node where the printing process lives
------------------
     ethr =  7.48E-06,  avg # of iterations =  9.2

     negative rho (up, down):  3.341E-04 0.000E+00

     total cpu time spent up to now is      409.0 secs

     total energy              =   -1007.50696836 Ry
     estimated scf accuracy    <       0.00061614 Ry

     iteration # 13     ecut=    50.00 Ry     beta= 0.40
     Davidson diagonalization with overlap

---- Real-time Memory Report at c_bands before calling an iterative solver
          1722 MiB given to the printing process from OS
             0 MiB allocation reported by mallinfo(arena+hblkhd)
          5009 MiB available memory on the node where the printing process lives
------------------
     ethr =  1.16E-06,  avg # of iterations =  3.7

     negative rho (up, down):  3.527E-04 0.000E+00

     total cpu time spent up to now is      439.0 secs

     total energy              =   -1007.50696194 Ry
     estimated scf accuracy    <       0.00031689 Ry

     iteration # 14     ecut=    50.00 Ry     beta= 0.40
     Davidson diagonalization with overlap

---- Real-time Memory Report at c_bands before calling an iterative solver
          1722 MiB given to the printing process from OS
             0 MiB allocation reported by mallinfo(arena+hblkhd)
          5010 MiB available memory on the node where the printing process lives
------------------
     ethr =  5.98E-07,  avg # of iterations =  1.0

     negative rho (up, down):  3.679E-04 0.000E+00

     total cpu time spent up to now is      465.2 secs

     total energy              =   -1007.50696297 Ry
     estimated scf accuracy    <       0.00003839 Ry

     iteration # 15     ecut=    50.00 Ry     beta= 0.40
     Davidson diagonalization with overlap

---- Real-time Memory Report at c_bands before calling an iterative solver
          1722 MiB given to the printing process from OS
             0 MiB allocation reported by mallinfo(arena+hblkhd)
          5009 MiB available memory on the node where the printing process lives
------------------
     ethr =  7.24E-08,  avg # of iterations =  1.0

     negative rho (up, down):  3.822E-04 0.000E+00

     total cpu time spent up to now is      491.3 secs

     total energy              =   -1007.50696406 Ry
     estimated scf accuracy    <       0.00000139 Ry

     iteration # 16     ecut=    50.00 Ry     beta= 0.40
     Davidson diagonalization with overlap

---- Real-time Memory Report at c_bands before calling an iterative solver
          1722 MiB given to the printing process from OS
             0 MiB allocation reported by mallinfo(arena+hblkhd)
          5008 MiB available memory on the node where the printing process lives
------------------
     ethr =  2.62E-09,  avg # of iterations =  1.0

     negative rho (up, down):  3.831E-04 0.000E+00

     total cpu time spent up to now is      517.0 secs

     total energy              =   -1007.50696396 Ry
     estimated scf accuracy    <       0.00000270 Ry

     iteration # 17     ecut=    50.00 Ry     beta= 0.40
     Davidson diagonalization with overlap

---- Real-time Memory Report at c_bands before calling an iterative solver
          1724 MiB given to the printing process from OS
             0 MiB allocation reported by mallinfo(arena+hblkhd)
          5005 MiB available memory on the node where the printing process lives
------------------
     ethr =  2.62E-09,  avg # of iterations =  1.0

     negative rho (up, down):  3.849E-04 0.000E+00

     total cpu time spent up to now is      542.5 secs

     End of self-consistent calculation

          k = 0.0000 0.0000 0.0000 ( 18895 PWs)   bands (ev):

  -128.9743-127.5231 -83.1805 -83.1805 -83.0697 -81.7211 -81.7173 -81.7173
   -22.0656 -21.4015 -10.3995 -10.1779 -10.0127 -10.0127  -9.9938  -9.9938
    -9.8009  -9.5091  -9.5091  -8.5190  -8.5190  -7.4064  -5.2783  -4.6751
    -4.6751  -3.2996  -3.2996  -1.7711   0.5170   0.8621   1.1223   1.2112

     occupation numbers 
     1.0000   1.0000   1.0000   1.0000   1.0000   1.0000   1.0000   1.0000
     1.0000   1.0000   1.0000   1.0000   1.0000   1.0000   1.0000   1.0000
     1.0000   1.0000   1.0000   1.0000   1.0000   1.0000   1.0000   1.0000
     1.0000   0.1312   0.1312   0.0000   0.0000   0.0000   0.0000   0.0000

          k = 0.0000 0.0962 0.0000 ( 18926 PWs)   bands (ev):

  -128.9743-127.5231 -83.1806 -83.1805 -83.0697 -81.7211 -81.7174 -81.7173
   -22.0358 -21.3884 -10.3837 -10.1872 -10.0201 -10.0061 -10.0020  -9.9774
    -9.7166  -9.5155  -9.4915  -8.5202  -8.5186  -7.3511  -5.2972  -4.8859
    -4.7479  -3.4366  -3.3174  -1.4733   0.6422   1.0030   1.2548   1.3444

     occupation numbers 
     1.0000   1.0000   1.0000   1.0000   1.0000   1.0000   1.0000   1.0000
     1.0000   1.0000   1.0000   1.0000   1.0000   1.0000   1.0000   1.0000
     1.0000   1.0000   1.0000   1.0000   1.0000   1.0000   1.0000   1.0000
     1.0000   0.5218   0.1645   0.0000   0.0000   0.0000   0.0000   0.0000

          k = 0.0000 0.1925 0.0000 ( 19042 PWs)   bands (ev):

  -128.9743-127.5231 -83.1810 -83.1807 -83.0697 -81.7211 -81.7179 -81.7175
   -21.9532 -21.3524 -10.3464 -10.2265 -10.0411 -10.0065  -9.9897  -9.9343
    -9.5565  -9.4459  -9.4384  -8.5210  -8.5050  -7.2069  -5.6321  -5.0476
    -4.9478  -3.7498  -3.3659  -0.7936   1.0034   1.4122   1.6521   1.7429

     occupation numbers 
     1.0000   1.0000   1.0000   1.0000   1.0000   1.0000   1.0000   1.0000
     1.0000   1.0000   1.0000   1.0000   1.0000   1.0000   1.0000   1.0000
     1.0000   1.0000   1.0000   1.0000   1.0000   1.0000   1.0000   1.0000
     1.0000   1.0657   0.2836   0.0000   0.0000   0.0000   0.0000   0.0000

          k = 0.0000 0.2887 0.0000 ( 19096 PWs)   bands (ev):

  -128.9743-127.5230 -83.1815 -83.1808 -83.0697 -81.7210 -81.7185 -81.7176
   -21.8375 -21.3032 -10.3439 -10.2498 -10.0819  -9.9785  -9.9743  -9.8747
    -9.5451  -9.3558  -9.1306  -8.5131  -8.4325  -7.0707  -6.2057  -5.2255
    -4.9216  -4.0995  -3.4317   0.0421   1.5078   2.0481   2.3024   2.3927

     occupation numbers 
     1.0000   1.0000   1.0000   1.0000   1.0000   1.0000   1.0000   1.0000
     1.0000   1.0000   1.0000   1.0000   1.0000   1.0000   1.0000   1.0000
     1.0000   1.0000   1.0000   1.0000   1.0000   1.0000   1.0000   1.0000
     1.0000   1.0001   0.5036   0.0000   0.0000   0.0000   0.0000   0.0000

          k = 0.0000 0.3849 0.0000 ( 19138 PWs)   bands (ev):

  -128.9743-127.5230 -83.1819 -83.1809 -83.0696 -81.7209 -81.7190 -81.7178
   -21.7178 -21.2542 -10.4037 -10.2149 -10.1230  -9.9661  -9.9397  -9.8132
    -9.5103  -9.2659  -8.8693  -8.4884  -8.2428  -7.2527  -6.4515  -5.5135
    -4.7000  -4.2818  -3.4969   0.5324   1.0359   2.4934   2.9196   3.2413

     occupation numbers 
     1.0000   1.0000   1.0000   1.0000   1.0000   1.0000   1.0000   1.0000
     1.0000   1.0000   1.0000   1.0000   1.0000   1.0000   1.0000   1.0000
     1.0000   1.0000   1.0000   1.0000   1.0000   1.0000   1.0000   1.0000
     1.0000   1.0000   0.7459   0.0000   0.0000   0.0000   0.0000   0.0000

          k = 0.0000 0.4811 0.0000 ( 19132 PWs)   bands (ev):

  -128.9743-127.5230 -83.1822 -83.1810 -83.0696 -81.7209 -81.7194 -81.7179
   -21.6273 -21.2188 -10.4483 -10.1925 -10.1491  -9.9635  -9.9079  -9.7668
    -9.4523  -9.1997  -8.6757  -8.4528  -8.1554  -7.5490  -6.4213  -5.7353
    -4.7437  -3.7448  -3.5441  -1.1598   1.8649   3.2308   3.8438   4.3673

     occupation numbers 
     1.0000   1.0000   1.0000   1.0000   1.0000   1.0000   1.0000   1.0000
     1.0000   1.0000   1.0000   1.0000   1.0000   1.0000   1.0000   1.0000
     1.0000   1.0000   1.0000   1.0000   1.0000   1.0000   1.0000   1.0000
     1.0000   1.0679   0.8984   0.0000   0.0000   0.0000   0.0000   0.0000

          k = 0.0000-0.5774 0.0000 ( 19154 PWs)   bands (ev):

  -128.9742-127.5230 -83.1824 -83.1811 -83.0696 -81.7209 -81.7196 -81.7180
   -21.5934 -21.2060 -10.4631 -10.1899 -10.1547  -9.9632  -9.8956  -9.7495
    -9.4217  -9.1763  -8.4344  -8.4291  -8.4112  -7.5586  -6.4078  -5.8198
    -4.7985  -3.5613  -2.6789  -2.6127   2.3214   3.5599   4.2933   4.8975

     occupation numbers 
     1.0000   1.0000   1.0000   1.0000   1.0000   1.0000   1.0000   1.0000
     1.0000   1.0000   1.0000   1.0000   1.0000   1.0000   1.0000   1.0000
     1.0000   1.0000   1.0000   1.0000   1.0000   1.0000   1.0000   1.0000
     1.0000   0.9439   0.0000   0.0000   0.0000   0.0000   0.0000   0.0000

          k = 0.0833 0.1443 0.0000 ( 18949 PWs)   bands (ev):

  -128.9743-127.5231 -83.1809 -83.1806 -83.0697 -81.7211 -81.7177 -81.7174
   -21.9796 -21.3638 -10.3558 -10.2132 -10.0272 -10.0139  -9.9857  -9.9591
    -9.5689  -9.5194  -9.4443  -8.5226  -8.5100  -7.2507  -5.4771  -5.0637
    -4.8865  -3.6479  -3.3590  -0.9939   0.8861   1.2784   1.5199   1.6103

     occupation numbers 
     1.0000   1.0000   1.0000   1.0000   1.0000   1.0000   1.0000   1.0000
     1.0000   1.0000   1.0000   1.0000   1.0000   1.0000   1.0000   1.0000
     1.0000   1.0000   1.0000   1.0000   1.0000   1.0000   1.0000   1.0000
     1.0000   1.0732   0.2642   0.0000   0.0000   0.0000   0.0000   0.0000

          k = 0.0833 0.2406 0.0000 ( 19034 PWs)   bands (ev):

  -128.9743-127.5230 -83.1813 -83.1807 -83.0697 -81.7210 -81.7182 -81.7175
   -21.8804 -21.3212 -10.3186 -10.2604 -10.0538  -9.9995  -9.9709  -9.9148
    -9.5366  -9.4142  -9.2336  -8.5211  -8.4627  -7.0999  -5.9744  -5.2368
    -4.9336  -3.9562  -3.4333  -0.2485   1.3409   1.8076   2.0478   2.1388

     occupation numbers 
     1.0000   1.0000   1.0000   1.0000   1.0000   1.0000   1.0000   1.0000
     1.0000   1.0000   1.0000   1.0000   1.0000   1.0000   1.0000   1.0000
     1.0000   1.0000   1.0000   1.0000   1.0000   1.0000   1.0000   1.0000
     1.0000   1.0039   0.5094   0.0000   0.0000   0.0000   0.0000   0.0000

          k = 0.0833 0.3368 0.0000 ( 19101 PWs)   bands (ev):

  -128.9743-127.5230 -83.1817 -83.1809 -83.0696 -81.7210 -81.7188 -81.7178
   -21.7624 -21.2721 -10.3558 -10.2378 -10.0918  -9.9843  -9.9452  -9.8565
    -9.5140  -9.3189  -8.9668  -8.5032  -8.3097  -7.0908  -6.3994  -5.5378
    -4.7368  -4.2364  -3.5160   0.6049   1.5072   2.3229   2.5927   2.8507

     occupation numbers 
     1.0000   1.0000   1.0000   1.0000   1.0000   1.0000   1.0000   1.0000
     1.0000   1.0000   1.0000   1.0000   1.0000   1.0000   1.0000   1.0000
     1.0000   1.0000   1.0000   1.0000   1.0000   1.0000   1.0000   1.0000
     1.0000   1.0000   0.8118   0.0000   0.0000   0.0000   0.0000   0.0000

          k = 0.0833 0.4330 0.0000 ( 19155 PWs)   bands (ev):

  -128.9743-127.5230 -83.1821 -83.1810 -83.0696 -81.7209 -81.7193 -81.7179
   -21.6569 -21.2300 -10.4059 -10.1997 -10.1258  -9.9790  -9.9134  -9.8034
    -9.4575  -9.2319  -8.7932  -8.4651  -8.1081  -7.4134  -6.4506  -5.8055
    -4.6425  -4.0549  -3.5835  -0.2200   1.5975   2.9345   3.4879   3.8894

     occupation numbers 
     1.0000   1.0000   1.0000   1.0000   1.0000   1.0000   1.0000   1.0000
     1.0000   1.0000   1.0000   1.0000   1.0000   1.0000   1.0000   1.0000
     1.0000   1.0000   1.0000   1.0000   1.0000   1.0000   1.0000   1.0000
     1.0000   1.0004   0.9931   0.0000   0.0000   0.0000   0.0000   0.0000

          k = 0.0833 0.5292 0.0000 ( 19135 PWs)   bands (ev):

  -128.9742-127.5230 -83.1823 -83.1811 -83.0696 -81.7209 -81.7195 -81.7180
   -21.5942 -21.2060 -10.4311 -10.1834 -10.1435  -9.9783  -9.8925  -9.7717
    -9.4042  -9.1781  -8.6135  -8.4247  -8.2310  -7.5244  -6.4247  -5.9677
    -4.7382  -3.6356  -3.1586  -1.8466   2.3456   3.5470   4.1112   4.2605

     occupation numbers 
     1.0000   1.0000   1.0000   1.0000   1.0000   1.0000   1.0000   1.0000
     1.0000   1.0000   1.0000   1.0000   1.0000   1.0000   1.0000   1.0000
     1.0000   1.0000   1.0000   1.0000   1.0000   1.0000   1.0000   1.0000
     1.0000   1.0647   0.0129   0.0000   0.0000   0.0000   0.0000   0.0000

          k = 0.1667 0.2887 0.0000 ( 19063 PWs)   bands (ev):

  -128.9743-127.5230 -83.1816 -83.1809 -83.0697 -81.7210 -81.7186 -81.7178
   -21.7787 -21.2787 -10.3075 -10.2686 -10.0671  -9.9910  -9.9476  -9.8912
    -9.5005  -9.3585  -9.0052  -8.5093  -8.3231  -7.0342  -6.3239  -5.6400
    -4.7391  -4.1722  -3.5542   0.5186   1.7814   2.4307   2.6546   2.7527

     occupation numbers 
     1.0000   1.0000   1.0000   1.0000   1.0000   1.0000   1.0000   1.0000
     1.0000   1.0000   1.0000   1.0000   1.0000   1.0000   1.0000   1.0000
     1.0000   1.0000   1.0000   1.0000   1.0000   1.0000   1.0000   1.0000
     1.0000   1.0000   0.9261   0.0000   0.0000   0.0000   0.0000   0.0000

          k = 0.1667 0.3849 0.0000 ( 19126 PWs)   bands (ev):

  -128.9743-127.5230 -83.1819 -83.1811 -83.0696 -81.7209 -81.7191 -81.7180
   -21.6743 -21.2365 -10.3386 -10.2217 -10.0885  -9.9941  -9.9171  -9.8561
    -9.4313  -9.2785  -8.8793  -8.4698  -8.0909  -7.2111  -6.4983  -6.0019
    -4.5185  -4.1742  -3.6753   0.8102   1.5787   2.6150   2.9679   3.3094

     occupation numbers 
     1.0000   1.0000   1.0000   1.0000   1.0000   1.0000   1.0000   1.0000
     1.0000   1.0000   1.0000   1.0000   1.0000   1.0000   1.0000   1.0000
     1.0000   1.0000   1.0000   1.0000   1.0000   1.0000   1.0000   1.0000
     1.0000   1.0000   1.0826   0.0000   0.0000   0.0000   0.0000   0.0000

          k = 0.1667 0.4811 0.0000 ( 19131 PWs)   bands (ev):

  -128.9742-127.5230 -83.1821 -83.1813 -83.0696 -81.7209 -81.7193 -81.7182
   -21.5958 -21.2060 -10.3553 -10.1859 -10.1101 -10.0013  -9.8905  -9.8253
    -9.3615  -9.1773  -8.7835  -8.4164  -8.0721  -7.4003  -6.5406  -6.2226
    -4.5974  -3.8180  -3.4125  -0.7873   2.0646   2.7474   3.5967   4.2473

     occupation numbers 
     1.0000   1.0000   1.0000   1.0000   1.0000   1.0000   1.0000   1.0000
     1.0000   1.0000   1.0000   1.0000   1.0000   1.0000   1.0000   1.0000
     1.0000   1.0000   1.0000   1.0000   1.0000   1.0000   1.0000   1.0000
     1.0000   1.0348   0.4341   0.0000   0.0000   0.0000   0.0000   0.0000

          k = 0.1667 0.5774 0.0000 ( 19115 PWs)   bands (ev):

  -128.9742-127.5230 -83.1822 -83.1813 -83.0696 -81.7209 -81.7194 -81.7182
   -21.5666 -21.1950 -10.3596 -10.1726 -10.1200 -10.0046  -9.8802  -9.8129
    -9.3371  -9.1266  -8.6664  -8.3909  -8.2543  -7.3980  -6.5257  -6.3197
    -4.6416  -3.8360  -2.3598  -2.1894   2.0340   3.3036   3.8847   4.5906

     occupation numbers 
     1.0000   1.0000   1.0000   1.0000   1.0000   1.0000   1.0000   1.0000
     1.0000   1.0000   1.0000   1.0000   1.0000   1.0000   1.0000   1.0000
     1.0000   1.0000   1.0000   1.0000   1.0000   1.0000   1.0000   1.0000
     1.0000   1.0280   0.0000   0.0000   0.0000   0.0000   0.0000   0.0000

          k = 0.2500 0.4330 0.0000 ( 19111 PWs)   bands (ev):

  -128.9742-127.5230 -83.1820 -83.1813 -83.0696 -81.7209 -81.7192 -81.7183
   -21.5966 -21.2060 -10.3024 -10.2006 -10.0982  -9.9950  -9.8978  -9.8581
    -9.3349  -9.1711  -8.8641  -8.4128  -8.0114  -7.2624  -6.7265  -6.2891
    -4.5013  -3.9369  -3.4858   0.1766   1.0598   2.5942   3.5550   4.2094

     occupation numbers 
     1.0000   1.0000   1.0000   1.0000   1.0000   1.0000   1.0000   1.0000
     1.0000   1.0000   1.0000   1.0000   1.0000   1.0000   1.0000   1.0000
     1.0000   1.0000   1.0000   1.0000   1.0000   1.0000   1.0000   1.0000
     1.0000   1.0057   0.7060   0.0000   0.0000   0.0000   0.0000   0.0000

          k = 0.2500 0.5292 0.0000 ( 19130 PWs)   bands (ev):

  -128.9742-127.5230 -83.1820 -83.1815 -83.0696 -81.7209 -81.7192 -81.7185
   -21.5511 -21.1886 -10.2731 -10.1762 -10.1248  -9.9895  -9.8892  -9.8566
    -9.3036  -8.9974  -8.7999  -8.4158  -8.1797  -7.2292  -6.8742  -6.4078
    -4.4934  -4.0601  -2.4905  -1.1109   0.4858   3.5412   4.2541   4.7208

     occupation numbers 
     1.0000   1.0000   1.0000   1.0000   1.0000   1.0000   1.0000   1.0000
     1.0000   1.0000   1.0000   1.0000   1.0000   1.0000   1.0000   1.0000
     1.0000   1.0000   1.0000   1.0000   1.0000   1.0000   1.0000   1.0000
     1.0000   1.0004   0.0000   0.0000   0.0000   0.0000   0.0000   0.0000

          k = 0.3333 0.5774 0.0000 ( 19131 PWs)   bands (ev):

  -128.9742-127.5230 -83.1818 -83.1818 -83.0696 -81.7209 -81.7190 -81.7188
   -21.5347 -21.1823 -10.1932 -10.1860 -10.1706  -9.9392  -9.9366  -9.8592
    -9.2931  -8.8560  -8.6988  -8.6085  -8.1961  -7.1189  -7.0673  -6.4633
    -4.3374  -4.2749  -1.6461  -0.9482  -0.9086   3.9858   4.7626   5.2640

     occupation numbers 
     1.0000   1.0000   1.0000   1.0000   1.0000   1.0000   1.0000   1.0000
     1.0000   1.0000   1.0000   1.0000   1.0000   1.0000   1.0000   1.0000
     1.0000   1.0000   1.0000   1.0000   1.0000   1.0000   1.0000   1.0000
     1.0000   1.0000   0.0000   0.0000   0.0000   0.0000   0.0000   0.0000

     the Fermi energy is    -3.4029 ev

!    total energy              =   -1007.50696400 Ry
     estimated scf accuracy    <       0.00000001 Ry
     smearing contrib. (-TS)   =      -0.00031826 Ry
     internal energy E=F+TS    =   -1007.50664574 Ry

     The total energy is F=E-TS. E is the sum of the following terms:
     one-electron contribution =  -15090.39204447 Ry
     hartree contribution      =    7541.90051151 Ry
     xc contribution           =     -99.92555120 Ry
     ewald contribution        =    6659.93395645 Ry
     one-center paw contrib.   =     -19.02351804 Ry
      -> PAW hartree energy AE =      53.72476385 Ry
      -> PAW hartree energy PS =     -53.46574451 Ry
      -> PAW xc energy AE      =     -33.57194064 Ry
      -> PAW xc energy PS      =      14.28940327 Ry
      -> total E_H with PAW    =    7542.15953085 Ry
      -> total E_XC with PAW   =    -119.20808857 Ry

     convergence has been achieved in  17 iterations

     negative rho (up, down):  3.849E-04 0.000E+00

     Forces acting on atoms (cartesian axes, Ry/au):

     atom    1 type  2   force =     0.00000000    0.00000000    0.06467156
     atom    2 type  2   force =     0.00000000    0.00000000   -0.00292418
     atom    3 type  1   force =     0.00000000    0.00000000   -0.23773859
     atom    4 type  1   force =     0.00000000    0.00000000   -0.01761016
     atom    5 type  3   force =     0.00000000   -0.00000000    0.19360138
     The non-local contrib.  to forces
     atom    1 type  2   force =     0.00000000   -0.00000000   -0.08543210
     atom    2 type  2   force =     0.00000000    0.00000000   -0.41114894
     atom    3 type  1   force =     0.00000000   -0.00000000    1.17932832
     atom    4 type  1   force =     0.00000000    0.00000000   -0.07626184
     atom    5 type  3   force =     0.00000000    0.00000000   -0.14504240
     The ionic contribution  to forces
     atom    1 type  2   force =    -0.00000057    0.00000033  109.54711169
     atom    2 type  2   force =     0.00000005   -0.00000003 -229.20751882
     atom    3 type  1   force =    -0.00000000    0.00000000   92.17582502
     atom    4 type  1   force =     0.00000053   -0.00000030    7.28817906
     atom    5 type  3   force =    -0.00000000    0.00000000   20.19640305
     The local contribution  to forces
     atom    1 type  2   force =    -0.00001937    0.00001118 -109.39648327
     atom    2 type  2   force =     0.00001961   -0.00001132  229.61622781
     atom    3 type  1   force =    -0.00000143    0.00000082  -93.58370982
     atom    4 type  1   force =     0.00000113   -0.00000065   -7.23013259
     atom    5 type  3   force =    -0.00000012    0.00000007  -19.85791453
     The core correction contribution to forces
     atom    1 type  2   force =     0.00000000    0.00000000    0.00000000
     atom    2 type  2   force =     0.00000000    0.00000000    0.00000000
     atom    3 type  1   force =    -0.00000000    0.00000000   -0.00921544
     atom    4 type  1   force =     0.00000000   -0.00000000    0.00065757
     atom    5 type  3   force =     0.00000000    0.00000000    0.00000000
     The Hubbard contrib.    to forces
     atom    1 type  2   force =     0.00000000    0.00000000    0.00000000
     atom    2 type  2   force =     0.00000000    0.00000000    0.00000000
     atom    3 type  1   force =     0.00000000    0.00000000    0.00000000
     atom    4 type  1   force =     0.00000000    0.00000000    0.00000000
     atom    5 type  3   force =     0.00000000    0.00000000    0.00000000
     The SCF correction term to forces
     atom    1 type  2   force =    -0.00000000    0.00000000   -0.00067124
     atom    2 type  2   force =     0.00000000   -0.00000000   -0.00063071
     atom    3 type  1   force =    -0.00000000    0.00000000   -0.00011314
     atom    4 type  1   force =     0.00000000   -0.00000000   -0.00019884
     atom    5 type  3   force =    -0.00000000    0.00000000    0.00000878

     Total force =     0.313851     Total SCF correction =     0.000949


     Computing stress (Cartesian axis) and pressure


     negative rho (up, down):  3.849E-04 0.000E+00
          total   stress  (Ry/bohr**3)                   (kbar)     P=        1.34
  -0.00001439   0.00000000   0.00000000           -2.12        0.00        0.00
   0.00000000  -0.00001439   0.00000000            0.00       -2.12        0.00
   0.00000000   0.00000000   0.00005619            0.00        0.00        8.27

     kinetic stress (kbar)   3562.89      0.00      0.00
                                0.00   3562.89      0.00
                                0.00      0.00   3466.58

     local   stress (kbar)-655481.21     -0.00      0.00
                               -0.00-655481.21     -0.00
                                0.00     -0.00 651831.64

     nonloc. stress (kbar)    -76.62      0.00      0.00
                                0.00    -76.62      0.00
                                0.00      0.00    -68.80

     hartree stress (kbar) 332981.30      0.00      0.00
                                0.00 332981.30     -0.00
                                0.00     -0.00-319098.24

     exc-cor stress (kbar)  -1428.73      0.00     -0.00
                                0.00  -1428.73      0.00
                               -0.00      0.00  -1426.31

     corecor stress (kbar)    -39.16     -0.00     -0.00
                               -0.00    -39.16      0.00
                               -0.00      0.00    -39.06

     ewald   stress (kbar) 320479.42      0.00     -0.00
                                0.00 320479.42      0.00
                               -0.00      0.00-334657.55

     hubbard stress (kbar)      0.00      0.00      0.00
                                0.00      0.00      0.00
                                0.00      0.00      0.00

     DFT-D   stress (kbar)      0.00      0.00      0.00
                                0.00      0.00      0.00
                                0.00      0.00      0.00

     XDM     stress (kbar)      0.00      0.00      0.00
                                0.00      0.00      0.00
                                0.00      0.00      0.00

     dft-nl  stress (kbar)      0.00      0.00      0.00
                                0.00      0.00      0.00
                                0.00      0.00      0.00

     TS-vdW  stress (kbar)      0.00      0.00      0.00
                                0.00      0.00      0.00
                                0.00      0.00      0.00

     MDB     stress (kbar)      0.00      0.00      0.00
                                0.00      0.00      0.00
                                0.00      0.00      0.00

     3D-RISM stress (kbar)      0.00      0.00      0.00
                                0.00      0.00      0.00
                                0.00      0.00      0.00


     Writing all to output data dir ./temp_hexag/aiida.save/ :
     XML data file, charge density, pseudopotentials, collected wavefunctions

     init_run     :    174.08s CPU     12.01s WALL (       1 calls)
     electrons    :   8075.30s CPU    530.06s WALL (       1 calls)
     forces       :     37.91s CPU      4.89s WALL (       1 calls)
     stress       :     99.94s CPU     11.86s WALL (       1 calls)

     Called by init_run:
     wfcinit      :    164.91s CPU     10.03s WALL (       1 calls)
     wfcinit:atom :      1.55s CPU      0.08s WALL (      19 calls)
     wfcinit:wfcr :    156.57s CPU      9.40s WALL (      19 calls)
     potinit      :      4.31s CPU      0.40s WALL (       1 calls)
     hinit0       :      1.86s CPU      0.33s WALL (       1 calls)

     Called by electrons:
     c_bands      :   6580.09s CPU    419.29s WALL (      17 calls)
     sum_band     :   1396.16s CPU     87.17s WALL (      17 calls)
     v_of_rho     :     24.59s CPU      3.66s WALL (      18 calls)
     v_h          :      6.46s CPU      0.54s WALL (      18 calls)
     v_xc         :     20.13s CPU      3.46s WALL (      20 calls)
     newd         :     39.23s CPU     18.71s WALL (      18 calls)
     PAW_pot      :     22.02s CPU      0.97s WALL (      18 calls)
     mix_rho      :     10.47s CPU      0.99s WALL (      17 calls)

     Called by c_bands:
     init_us_2    :     48.84s CPU      4.69s WALL (     703 calls)
     cegterg      :   6531.64s CPU    413.44s WALL (     323 calls)

     Called by sum_band:
     sum_band:wei :      0.00s CPU      0.00s WALL (      17 calls)
     sum_band:loo :   1366.63s CPU     65.34s WALL (      17 calls)
     sum_band:buf :      4.50s CPU      0.40s WALL (     323 calls)
     sum_band:ini :     21.62s CPU      1.59s WALL (     323 calls)
     sum_band:cal :    124.92s CPU     11.66s WALL (     323 calls)
     sum_band:bec :     14.13s CPU      1.22s WALL (     323 calls)
     addusdens    :     25.68s CPU     21.11s WALL (      17 calls)
                                        0.00s GPU  (      17 calls)
     addusd:skk   :      1.23s CPU      0.08s WALL (      51 calls)
                                        0.00s GPU  (      51 calls)

     Called by *egterg:
     cdiaghg      :     21.68s CPU      1.34s WALL (    1696 calls)
     cegterg:over :    124.05s CPU     27.58s WALL (    1373 calls)
     cegterg:upda :    206.49s CPU     22.69s WALL (    1373 calls)
     cegterg:last :     80.06s CPU     40.22s WALL (     576 calls)
     h_psi        :   5871.42s CPU    282.25s WALL (    1715 calls)
     s_psi        :    294.25s CPU     28.76s WALL (    1715 calls)
     g_psi        :     15.80s CPU      1.44s WALL (    1373 calls)

     Called by h_psi:
     h_psi:calbec :    359.01s CPU     28.29s WALL (    1715 calls)
     vloc_psi     :   5388.41s CPU    227.36s WALL (    1715 calls)
     add_vuspsi   :     94.58s CPU     25.16s WALL (    1715 calls)

     General routines
     calbec       :    513.01s CPU     43.16s WALL (    2133 calls)
     fft          :     21.07s CPU      3.54s WALL (     257 calls)
     ffts         :      1.71s CPU      0.16s WALL (      35 calls)
     fftw         :   4918.89s CPU    208.01s WALL (   58826 calls)
     interpolate  :      4.54s CPU      0.40s WALL (      18 calls)

     Parallel routines

     PAW routines
     PAW_pot      :     22.02s CPU      0.97s WALL (      18 calls)
     PAW_symme    :      0.00s CPU      0.00s WALL (      35 calls)

     PWSCF        :      2h19m CPU   9m22.02s WALL


   This run was terminated on:  20:20:40  14Jun2024            

=------------------------------------------------------------------------------=
   JOB DONE.
=------------------------------------------------------------------------------=
