
     Program PWSCF v.7.3.1 starts on 14Jun2024 at 20: 1:35 

     This program is part of the open-source Quantum ESPRESSO suite
     for quantum simulation of materials; please cite
         "P. Giannozzi et al., J. Phys.:Condens. Matter 21 395502 (2009);
         "P. Giannozzi et al., J. Phys.:Condens. Matter 29 465901 (2017);
         "P. Giannozzi et al., J. Chem. Phys. 152 154105 (2020);
          URL http://www.quantum-espresso.org", 
     in publications or presentations arising from this work. More details at
     http://www.quantum-espresso.org/quote

     Parallel version (MPI & OpenMP), running on      24 processor cores
     Number of MPI processes:                 1
     Threads/MPI process:                    24

     MPI processes distributed on     1 nodes
     5491 MiB available memory on the printing compute node when the environment starts

     Waiting for input...
     Reading input from standard input

     Current dimensions of program PWSCF are:
     Max number of different atomic species (ntypx) = 10
     Max number of k-points (npk) =  40000
     Max angular momentum in pseudopotentials (lmaxx) =  4
     file O.pbe-n-kjpaw_psl.0.1.UPF: wavefunction(s)  2P renormalized
     Message from routine setup:
     using ibrav=0 with symmetry is DISCOURAGED, use correct ibrav instead

     Subspace diagonalization in iterative solution of the eigenvalue problem:
     a serial algorithm will be used


     G-vector sticks info
     --------------------
     sticks:   dense  smooth     PW     G-vecs:    dense   smooth      PW
     Sum        1039     511    151               432659   152803   25137

     Using Slab Decomposition



     bravais-lattice index     =            0
     lattice parameter (alat)  =       6.1177  a.u.
     unit-cell volume          =    3198.5179 (a.u.)^3
     number of atoms/cell      =            5
     number of atomic types    =            3
     number of electrons       =        53.00
     number of Kohn-Sham states=           32
     kinetic-energy cutoff     =      50.0000  Ry
     charge density cutoff     =     400.0000  Ry
     scf convergence threshold =      2.0E-08
     mixing beta               =       0.4000
     number of iterations used =            8  plain     mixing
     Exchange-correlation= PBE
                           (   1   4   3   4   0   0   0)

     celldm(1)=   6.117707  celldm(2)=   0.000000  celldm(3)=   0.000000
     celldm(4)=   0.000000  celldm(5)=   0.000000  celldm(6)=   0.000000

     crystal axes: (cart. coord. in units of alat)
               a(1) = (   1.000000   0.000000   0.000000 )  
               a(2) = (  -0.500000   0.866025   0.000000 )  
               a(3) = (   0.000000   0.000000  16.130661 )  

     reciprocal axes: (cart. coord. in units 2 pi/alat)
               b(1) = (  1.000000  0.577350 -0.000000 )  
               b(2) = (  0.000000  1.154701  0.000000 )  
               b(3) = (  0.000000 -0.000000  0.061994 )  


     PseudoPot. # 1 for O  read from file:
     ../SSSP_1.3.0_PBE_efficiency/O.pbe-n-kjpaw_psl.0.1.UPF
     MD5 check sum: 0234752ac141de4415c5fc33072bef88
     Pseudo is Projector augmented-wave + core cor, Zval =  6.0
     Generated using "atomic" code by A. Dal Corso  v.5.0.99 svn rev. 10869
     Shape of augmentation charge: BESSEL
     Using radial grid of 1095 points,  4 beta functions with: 
                l(1) =   0
                l(2) =   0
                l(3) =   1
                l(4) =   1
     Q(r) pseudized with 0 coefficients 


     PseudoPot. # 2 for Zn read from file:
     ../SSSP_1.3.0_PBE_efficiency/Zn_pbe_v1.uspp.F.UPF
     MD5 check sum: df62231357ef9e81f77b2b3087fa5675
     Pseudo is Ultrasoft, Zval = 20.0
     Generated by new atomic code, or converted to UPF format
     Using radial grid of  943 points,  6 beta functions with: 
                l(1) =   0
                l(2) =   0
                l(3) =   1
                l(4) =   1
                l(5) =   2
                l(6) =   2
     Q(r) pseudized with  8 coefficients,  rinner =    1.100   1.100   1.100
                                                       1.100   1.100

     PseudoPot. # 3 for H  read from file:
     ../SSSP_1.3.0_PBE_efficiency/H.pbe-rrkjus_psl.1.0.0.UPF
     MD5 check sum: f52b6d4d1c606e5624b1dc7b2218f220
     Pseudo is Ultrasoft, Zval =  1.0
     Generated using "atomic" code by A. Dal Corso  v.5.1
     Using radial grid of  929 points,  2 beta functions with: 
                l(1) =   0
                l(2) =   0
     Q(r) pseudized with 0 coefficients 


     atomic species   valence    mass     pseudopotential
     O                 6.00    15.99940     O ( 1.00)
     Zn               20.00    65.38000     Zn( 1.00)
     H                 1.00     1.00794     H ( 1.00)

      6 Sym. Ops. (no inversion) found


                                    s                        frac. trans.

      isym =  1     identity                                     

 cryst.   s( 1) = (     1          0          0      )
                  (     0          1          0      )
                  (     0          0          1      )

 cart.    s( 1) = (  1.0000000  0.0000000  0.0000000 )
                  (  0.0000000  1.0000000  0.0000000 )
                  (  0.0000000  0.0000000  1.0000000 )


      isym =  2     120 deg rotation - cryst. axis [0,0,1]       

 cryst.   s( 2) = (     0          1          0      )
                  (    -1         -1          0      )
                  (     0          0          1      )

 cart.    s( 2) = ( -0.5000000 -0.8660254  0.0000000 )
                  (  0.8660254 -0.5000000  0.0000000 )
                  (  0.0000000  0.0000000  1.0000000 )


      isym =  3     120 deg rotation - cryst. axis [0,0,-1]      

 cryst.   s( 3) = (    -1         -1          0      )
                  (     1          0          0      )
                  (     0          0          1      )

 cart.    s( 3) = ( -0.5000000  0.8660254  0.0000000 )
                  ( -0.8660254 -0.5000000  0.0000000 )
                  (  0.0000000  0.0000000  1.0000000 )


      isym =  4     inv. 180 deg rotation - cart. axis [1,0,0]   

 cryst.   s( 4) = (    -1          0          0      )
                  (     1          1          0      )
                  (     0          0          1      )

 cart.    s( 4) = ( -1.0000000  0.0000000  0.0000000 )
                  (  0.0000000  1.0000000  0.0000000 )
                  (  0.0000000  0.0000000  1.0000000 )


      isym =  5     inv. 180 deg rotation - cryst. axis [0,1,0]  

 cryst.   s( 5) = (     1          1          0      )
                  (     0         -1          0      )
                  (     0          0          1      )

 cart.    s( 5) = (  0.5000000  0.8660254  0.0000000 )
                  (  0.8660254 -0.5000000  0.0000000 )
                  (  0.0000000  0.0000000  1.0000000 )


      isym =  6     inv. 180 deg rotation - cryst. axis [1,1,0]  

 cryst.   s( 6) = (     0         -1          0      )
                  (    -1          0          0      )
                  (     0          0          1      )

 cart.    s( 6) = (  0.5000000 -0.8660254  0.0000000 )
                  ( -0.8660254 -0.5000000  0.0000000 )
                  (  0.0000000  0.0000000  1.0000000 )


   Cartesian axes

     site n.     atom                  positions (alat units)
         1        Zn     tau(   1) = (   0.5000000   0.2886751   0.8074875  )
         2        Zn     tau(   2) = (  -0.0000000   0.5773503   0.0009545  )
         3        O      tau(   3) = (   0.5000000   0.2886751   1.4190438  )
         4        O      tau(   4) = (  -0.0000000   0.5773503   0.6125107  )
         5        H      tau(   5) = (   0.5000000   0.2886751   1.7743727  )

   Crystallographic axes

     site n.     atom                  positions (cryst. coord.)
         1        Zn     tau(   1) = (  0.6666667  0.3333333  0.0500592  )
         2        Zn     tau(   2) = (  0.3333333  0.6666667  0.0000592  )
         3        O      tau(   3) = (  0.6666667  0.3333333  0.0879718  )
         4        O      tau(   4) = (  0.3333333  0.6666667  0.0379718  )
         5        H      tau(   5) = (  0.6666667  0.3333333  0.1100000  )

     number of k points=    19  Marzari-Vanderbilt smearing, width (Ry)=  0.0147
                       cart. coord. in units 2pi/alat
        k(    1) = (   0.0000000   0.0000000   0.0000000), wk =   0.0138889
        k(    2) = (   0.0000000   0.0962250   0.0000000), wk =   0.0833333
        k(    3) = (   0.0000000   0.1924501   0.0000000), wk =   0.0833333
        k(    4) = (   0.0000000   0.2886751   0.0000000), wk =   0.0833333
        k(    5) = (   0.0000000   0.3849002   0.0000000), wk =   0.0833333
        k(    6) = (   0.0000000   0.4811252   0.0000000), wk =   0.0833333
        k(    7) = (   0.0000000  -0.5773503   0.0000000), wk =   0.0416667
        k(    8) = (   0.0833333   0.1443376   0.0000000), wk =   0.0833333
        k(    9) = (   0.0833333   0.2405626   0.0000000), wk =   0.1666667
        k(   10) = (   0.0833333   0.3367877   0.0000000), wk =   0.1666667
        k(   11) = (   0.0833333   0.4330127   0.0000000), wk =   0.1666667
        k(   12) = (   0.0833333   0.5292377   0.0000000), wk =   0.1666667
        k(   13) = (   0.1666667   0.2886751   0.0000000), wk =   0.0833333
        k(   14) = (   0.1666667   0.3849002   0.0000000), wk =   0.1666667
        k(   15) = (   0.1666667   0.4811252   0.0000000), wk =   0.1666667
        k(   16) = (   0.1666667   0.5773503   0.0000000), wk =   0.0833333
        k(   17) = (   0.2500000   0.4330127   0.0000000), wk =   0.0833333
        k(   18) = (   0.2500000   0.5292377   0.0000000), wk =   0.1666667
        k(   19) = (   0.3333333   0.5773503   0.0000000), wk =   0.0277778

                       cryst. coord.
        k(    1) = (   0.0000000   0.0000000   0.0000000), wk =   0.0138889
        k(    2) = (   0.0000000   0.0833333   0.0000000), wk =   0.0833333
        k(    3) = (   0.0000000   0.1666667   0.0000000), wk =   0.0833333
        k(    4) = (   0.0000000   0.2500000   0.0000000), wk =   0.0833333
        k(    5) = (   0.0000000   0.3333333   0.0000000), wk =   0.0833333
        k(    6) = (   0.0000000   0.4166667   0.0000000), wk =   0.0833333
        k(    7) = (   0.0000000  -0.5000000   0.0000000), wk =   0.0416667
        k(    8) = (   0.0833333   0.0833333   0.0000000), wk =   0.0833333
        k(    9) = (   0.0833333   0.1666667   0.0000000), wk =   0.1666667
        k(   10) = (   0.0833333   0.2500000   0.0000000), wk =   0.1666667
        k(   11) = (   0.0833333   0.3333333   0.0000000), wk =   0.1666667
        k(   12) = (   0.0833333   0.4166667   0.0000000), wk =   0.1666667
        k(   13) = (   0.1666667   0.1666667   0.0000000), wk =   0.0833333
        k(   14) = (   0.1666667   0.2500000   0.0000000), wk =   0.1666667
        k(   15) = (   0.1666667   0.3333333   0.0000000), wk =   0.1666667
        k(   16) = (   0.1666667   0.4166667   0.0000000), wk =   0.0833333
        k(   17) = (   0.2500000   0.2500000   0.0000000), wk =   0.0833333
        k(   18) = (   0.2500000   0.3333333   0.0000000), wk =   0.1666667
        k(   19) = (   0.3333333   0.3333333   0.0000000), wk =   0.0277778

     Dense  grid:   432659 G-vectors     FFT dimensions: (  40,  40, 640)

     Smooth grid:   152803 G-vectors     FFT dimensions: (  27,  27, 450)

     Dynamical RAM for                 wfc:       9.32 MB

     Dynamical RAM for     wfc (w. buffer):     186.48 MB

     Dynamical RAM for           str. fact:      19.81 MB

     Dynamical RAM for           local pot:       0.00 MB

     Dynamical RAM for          nlocal pot:      15.73 MB

     Dynamical RAM for                qrad:       4.82 MB

     Dynamical RAM for          rho,v,vnew:      43.24 MB

     Dynamical RAM for               rhoin:      14.41 MB

     Dynamical RAM for            rho*nmix:     105.63 MB

     Dynamical RAM for           G-vectors:      25.92 MB

     Dynamical RAM for          h,s,v(r/c):       0.19 MB

     Dynamical RAM for          <psi|beta>:       0.03 MB

     Dynamical RAM for                 psi:      18.65 MB

     Dynamical RAM for                hpsi:      18.65 MB

     Dynamical RAM for                spsi:      18.65 MB

     Dynamical RAM for      wfcinit/wfcrot:      20.43 MB

     Dynamical RAM for           addusdens:    1241.15 MB

     Dynamical RAM for          addusforce:    1257.66 MB

     Dynamical RAM for         addusstress:    1326.97 MB

     Estimated static dynamical RAM per process >     375.89 MB

     Estimated max dynamical RAM per process >       1.77 GB

     Initial potential from superposition of free atoms

     starting charge      52.9997, renormalised to      53.0000

     negative rho (up, down):  3.448E-04 0.000E+00
     Starting wfcs are   35 randomized atomic wfcs
     Checking if some PAW data can be deallocated... 

     total cpu time spent up to now is       13.0 secs

     Self-consistent Calculation

     iteration #  1     ecut=    50.00 Ry     beta= 0.40
     Davidson diagonalization with overlap

---- Real-time Memory Report at c_bands before calling an iterative solver
          1410 MiB given to the printing process from OS
             0 MiB allocation reported by mallinfo(arena+hblkhd)
          5105 MiB available memory on the node where the printing process lives
------------------
     ethr =  1.00E-02,  avg # of iterations =  4.3

     negative rho (up, down):  2.024E-04 0.000E+00

     total cpu time spent up to now is       45.1 secs

     total energy              =   -1006.68053139 Ry
     estimated scf accuracy    <       1.96745647 Ry

     iteration #  2     ecut=    50.00 Ry     beta= 0.40
     Davidson diagonalization with overlap

---- Real-time Memory Report at c_bands before calling an iterative solver
          1681 MiB given to the printing process from OS
             0 MiB allocation reported by mallinfo(arena+hblkhd)
          5051 MiB available memory on the node where the printing process lives
------------------
     ethr =  3.71E-03,  avg # of iterations =  9.1

     negative rho (up, down):  3.563E-04 0.000E+00

     total cpu time spent up to now is       91.2 secs

     total energy              =   -1002.71574542 Ry
     estimated scf accuracy    <     117.32653988 Ry

     iteration #  3     ecut=    50.00 Ry     beta= 0.40
     Davidson diagonalization with overlap

---- Real-time Memory Report at c_bands before calling an iterative solver
          1686 MiB given to the printing process from OS
             0 MiB allocation reported by mallinfo(arena+hblkhd)
          5037 MiB available memory on the node where the printing process lives
------------------
     ethr =  3.71E-03,  avg # of iterations =  7.4

     negative rho (up, down):  2.337E-04 0.000E+00

     total cpu time spent up to now is      135.3 secs

     total energy              =   -1007.48243084 Ry
     estimated scf accuracy    <       0.94144753 Ry

     iteration #  4     ecut=    50.00 Ry     beta= 0.40
     Davidson diagonalization with overlap

---- Real-time Memory Report at c_bands before calling an iterative solver
          1691 MiB given to the printing process from OS
             0 MiB allocation reported by mallinfo(arena+hblkhd)
          5032 MiB available memory on the node where the printing process lives
------------------
     ethr =  1.78E-03,  avg # of iterations =  1.9

     negative rho (up, down):  2.009E-04 0.000E+00

     total cpu time spent up to now is      164.8 secs

     total energy              =   -1007.48695298 Ry
     estimated scf accuracy    <       0.36765076 Ry

     iteration #  5     ecut=    50.00 Ry     beta= 0.40
     Davidson diagonalization with overlap

---- Real-time Memory Report at c_bands before calling an iterative solver
          1696 MiB given to the printing process from OS
             0 MiB allocation reported by mallinfo(arena+hblkhd)
          5028 MiB available memory on the node where the printing process lives
------------------
     ethr =  6.94E-04,  avg # of iterations =  1.8

     negative rho (up, down):  2.077E-04 0.000E+00

     total cpu time spent up to now is      192.1 secs

     total energy              =   -1007.48846791 Ry
     estimated scf accuracy    <       0.07975644 Ry

     iteration #  6     ecut=    50.00 Ry     beta= 0.40
     Davidson diagonalization with overlap

---- Real-time Memory Report at c_bands before calling an iterative solver
          1700 MiB given to the printing process from OS
             0 MiB allocation reported by mallinfo(arena+hblkhd)
          5024 MiB available memory on the node where the printing process lives
------------------
     ethr =  1.50E-04,  avg # of iterations =  4.7

     negative rho (up, down):  2.226E-04 0.000E+00

     total cpu time spent up to now is      221.1 secs

     total energy              =   -1007.46772638 Ry
     estimated scf accuracy    <       0.16487662 Ry

     iteration #  7     ecut=    50.00 Ry     beta= 0.40
     Davidson diagonalization with overlap

---- Real-time Memory Report at c_bands before calling an iterative solver
          1705 MiB given to the printing process from OS
             0 MiB allocation reported by mallinfo(arena+hblkhd)
          5023 MiB available memory on the node where the printing process lives
------------------
     ethr =  1.50E-04,  avg # of iterations =  3.0

     negative rho (up, down):  2.341E-04 0.000E+00

     total cpu time spent up to now is      250.5 secs

     total energy              =   -1007.47905078 Ry
     estimated scf accuracy    <       0.27319747 Ry

     iteration #  8     ecut=    50.00 Ry     beta= 0.40
     Davidson diagonalization with overlap

---- Real-time Memory Report at c_bands before calling an iterative solver
          1710 MiB given to the printing process from OS
             0 MiB allocation reported by mallinfo(arena+hblkhd)
          5015 MiB available memory on the node where the printing process lives
------------------
     ethr =  1.50E-04,  avg # of iterations =  2.2

     negative rho (up, down):  2.455E-04 0.000E+00

     total cpu time spent up to now is      278.2 secs

     total energy              =   -1007.47080074 Ry
     estimated scf accuracy    <       0.09783056 Ry

     iteration #  9     ecut=    50.00 Ry     beta= 0.40
     Davidson diagonalization with overlap

---- Real-time Memory Report at c_bands before calling an iterative solver
          1714 MiB given to the printing process from OS
             0 MiB allocation reported by mallinfo(arena+hblkhd)
          5009 MiB available memory on the node where the printing process lives
------------------
     ethr =  1.50E-04,  avg # of iterations =  4.4

     negative rho (up, down):  2.488E-04 0.000E+00

     total cpu time spent up to now is      308.5 secs

     total energy              =   -1007.47486289 Ry
     estimated scf accuracy    <       0.03881322 Ry

     iteration # 10     ecut=    50.00 Ry     beta= 0.40
     Davidson diagonalization with overlap

---- Real-time Memory Report at c_bands before calling an iterative solver
          1719 MiB given to the printing process from OS
             0 MiB allocation reported by mallinfo(arena+hblkhd)
          5004 MiB available memory on the node where the printing process lives
------------------
     ethr =  7.32E-05,  avg # of iterations =  5.2

     negative rho (up, down):  2.496E-04 0.000E+00

     total cpu time spent up to now is      338.6 secs

     total energy              =   -1007.47433291 Ry
     estimated scf accuracy    <       0.00999000 Ry

     iteration # 11     ecut=    50.00 Ry     beta= 0.40
     Davidson diagonalization with overlap

---- Real-time Memory Report at c_bands before calling an iterative solver
          1722 MiB given to the printing process from OS
             0 MiB allocation reported by mallinfo(arena+hblkhd)
          5005 MiB available memory on the node where the printing process lives
------------------
     ethr =  1.88E-05,  avg # of iterations =  5.5

     negative rho (up, down):  2.864E-04 0.000E+00

     total cpu time spent up to now is      369.6 secs

     total energy              =   -1007.47421415 Ry
     estimated scf accuracy    <       0.01115795 Ry

     iteration # 12     ecut=    50.00 Ry     beta= 0.40
     Davidson diagonalization with overlap

---- Real-time Memory Report at c_bands before calling an iterative solver
          1722 MiB given to the printing process from OS
             0 MiB allocation reported by mallinfo(arena+hblkhd)
          5010 MiB available memory on the node where the printing process lives
------------------
     ethr =  1.88E-05,  avg # of iterations =  9.6

     negative rho (up, down):  3.167E-04 0.000E+00

     total cpu time spent up to now is      403.0 secs

     total energy              =   -1007.47459295 Ry
     estimated scf accuracy    <       0.00093814 Ry

     iteration # 13     ecut=    50.00 Ry     beta= 0.40
     Davidson diagonalization with overlap

---- Real-time Memory Report at c_bands before calling an iterative solver
          1722 MiB given to the printing process from OS
             0 MiB allocation reported by mallinfo(arena+hblkhd)
          5009 MiB available memory on the node where the printing process lives
------------------
     ethr =  1.77E-06,  avg # of iterations =  7.8

     negative rho (up, down):  3.437E-04 0.000E+00

     total cpu time spent up to now is      435.3 secs

     total energy              =   -1007.47461985 Ry
     estimated scf accuracy    <       0.00001275 Ry

     iteration # 14     ecut=    50.00 Ry     beta= 0.40
     Davidson diagonalization with overlap

---- Real-time Memory Report at c_bands before calling an iterative solver
          1722 MiB given to the printing process from OS
             0 MiB allocation reported by mallinfo(arena+hblkhd)
          5010 MiB available memory on the node where the printing process lives
------------------
     ethr =  2.40E-08,  avg # of iterations =  1.7

     negative rho (up, down):  3.692E-04 0.000E+00

     total cpu time spent up to now is      463.9 secs

     total energy              =   -1007.47461660 Ry
     estimated scf accuracy    <       0.00025952 Ry

     iteration # 15     ecut=    50.00 Ry     beta= 0.40
     Davidson diagonalization with overlap

---- Real-time Memory Report at c_bands before calling an iterative solver
          1722 MiB given to the printing process from OS
             0 MiB allocation reported by mallinfo(arena+hblkhd)
          5009 MiB available memory on the node where the printing process lives
------------------
     ethr =  2.40E-08,  avg # of iterations =  1.0

     negative rho (up, down):  3.736E-04 0.000E+00

     total cpu time spent up to now is      490.3 secs

     total energy              =   -1007.47461761 Ry
     estimated scf accuracy    <       0.00003264 Ry

     iteration # 16     ecut=    50.00 Ry     beta= 0.40
     Davidson diagonalization with overlap

---- Real-time Memory Report at c_bands before calling an iterative solver
          1722 MiB given to the printing process from OS
             0 MiB allocation reported by mallinfo(arena+hblkhd)
          5011 MiB available memory on the node where the printing process lives
------------------
     ethr =  2.40E-08,  avg # of iterations =  1.0

     negative rho (up, down):  3.754E-04 0.000E+00

     total cpu time spent up to now is      516.1 secs

     total energy              =   -1007.47461808 Ry
     estimated scf accuracy    <       0.00000058 Ry

     iteration # 17     ecut=    50.00 Ry     beta= 0.40
     Davidson diagonalization with overlap

---- Real-time Memory Report at c_bands before calling an iterative solver
          1722 MiB given to the printing process from OS
             0 MiB allocation reported by mallinfo(arena+hblkhd)
          5013 MiB available memory on the node where the printing process lives
------------------
     ethr =  1.10E-09,  avg # of iterations =  1.1

     negative rho (up, down):  3.761E-04 0.000E+00

     total cpu time spent up to now is      541.4 secs

     End of self-consistent calculation

          k = 0.0000 0.0000 0.0000 ( 18895 PWs)   bands (ev):

  -128.6457-127.3501 -82.8509 -82.8509 -82.7432 -81.5602 -81.5375 -81.5375
   -21.8126 -19.8951 -10.1156  -9.7431  -9.7431  -9.6735  -9.6670  -9.6670
    -9.2501  -9.2501  -9.1915  -8.3450  -8.3450  -7.1041  -5.0555  -4.4488
    -4.4488  -2.9591  -2.9591  -1.7054  -0.1302   0.9430   1.0343   1.1650

     occupation numbers 
     1.0000   1.0000   1.0000   1.0000   1.0000   1.0000   1.0000   1.0000
     1.0000   1.0000   1.0000   1.0000   1.0000   1.0000   1.0000   1.0000
     1.0000   1.0000   1.0000   1.0000   1.0000   1.0000   1.0000   1.0000
     1.0000   0.1205   0.1205   0.0000   0.0000   0.0000   0.0000   0.0000

          k = 0.0000 0.0962 0.0000 ( 18926 PWs)   bands (ev):

  -128.6457-127.3501 -82.8511 -82.8510 -82.7432 -81.5602 -81.5376 -81.5375
   -21.7830 -19.8788 -10.0979  -9.7968  -9.7330  -9.6782  -9.6504  -9.5936
    -9.2576  -9.2365  -9.1494  -8.3460  -8.3406  -7.0497  -5.0758  -4.6532
    -4.5218  -3.1042  -2.9770  -1.4047  -0.0161   1.0736   1.1694   1.2979

     occupation numbers 
     1.0000   1.0000   1.0000   1.0000   1.0000   1.0000   1.0000   1.0000
     1.0000   1.0000   1.0000   1.0000   1.0000   1.0000   1.0000   1.0000
     1.0000   1.0000   1.0000   1.0000   1.0000   1.0000   1.0000   1.0000
     1.0000   0.5285   0.1522   0.0000   0.0000   0.0000   0.0000   0.0000

          k = 0.0000 0.1925 0.0000 ( 19042 PWs)   bands (ev):

  -128.6457-127.3501 -82.8514 -82.8511 -82.7432 -81.5602 -81.5381 -81.5377
   -21.7013 -19.8339 -10.0573  -9.8806  -9.7087  -9.7084  -9.6057  -9.4578
    -9.2721  -9.1936  -9.0056  -8.3461  -8.3092  -6.9112  -5.4108  -4.7968
    -4.7221  -3.4215  -3.0258  -0.7369   0.3097   1.4606   1.5673   1.6989

     occupation numbers 
     1.0000   1.0000   1.0000   1.0000   1.0000   1.0000   1.0000   1.0000
     1.0000   1.0000   1.0000   1.0000   1.0000   1.0000   1.0000   1.0000
     1.0000   1.0000   1.0000   1.0000   1.0000   1.0000   1.0000   1.0000
     1.0000   1.0630   0.2669   0.0000   0.0000   0.0000   0.0000   0.0000

          k = 0.0000 0.2887 0.0000 ( 19096 PWs)   bands (ev):

  -128.6457-127.3501 -82.8519 -82.8512 -82.7432 -81.5601 -81.5387 -81.5378
   -21.5871 -19.7717 -10.0481  -9.9283  -9.7507  -9.6833  -9.5450  -9.3461
    -9.2722  -9.1229  -8.7892  -8.3370  -8.1812  -6.8006  -5.9587  -5.0004
    -4.6529  -3.7709  -3.0920   0.0685   0.8059   2.0424   2.2040   2.3567

     occupation numbers 
     1.0000   1.0000   1.0000   1.0000   1.0000   1.0000   1.0000   1.0000
     1.0000   1.0000   1.0000   1.0000   1.0000   1.0000   1.0000   1.0000
     1.0000   1.0000   1.0000   1.0000   1.0000   1.0000   1.0000   1.0000
     1.0000   1.0001   0.4834   0.0000   0.0000   0.0000   0.0000   0.0000

          k = 0.0000 0.3849 0.0000 ( 19138 PWs)   bands (ev):

  -128.6456-127.3500 -82.8524 -82.8514 -82.7431 -81.5601 -81.5392 -81.5380
   -21.4699 -19.7084 -10.1046  -9.9007  -9.7923  -9.6674  -9.4831  -9.2743
    -9.2344  -9.0427  -8.6268  -8.3105  -7.9213  -7.0179  -6.1643  -5.2889
    -4.3987  -3.9641  -3.1575   0.7649   0.9506   1.7217   2.9907   3.1264

     occupation numbers 
     1.0000   1.0000   1.0000   1.0000   1.0000   1.0000   1.0000   1.0000
     1.0000   1.0000   1.0000   1.0000   1.0000   1.0000   1.0000   1.0000
     1.0000   1.0000   1.0000   1.0000   1.0000   1.0000   1.0000   1.0000
     1.0000   1.0000   0.7274   0.0000   0.0000   0.0000   0.0000   0.0000

          k = 0.0000 0.4811 0.0000 ( 19132 PWs)   bands (ev):

  -128.6456-127.3500 -82.8527 -82.8515 -82.7431 -81.5601 -81.5396 -81.5381
   -21.3821 -19.6613 -10.1487  -9.8770  -9.8210  -9.6606  -9.4367  -9.2336
    -9.1692  -8.9827  -8.4733  -8.2732  -7.8920  -7.2166  -6.1420  -5.5110
    -4.4212  -3.4345  -3.2050  -0.8509   1.6606   2.3628   3.8427   4.2658

     occupation numbers 
     1.0000   1.0000   1.0000   1.0000   1.0000   1.0000   1.0000   1.0000
     1.0000   1.0000   1.0000   1.0000   1.0000   1.0000   1.0000   1.0000
     1.0000   1.0000   1.0000   1.0000   1.0000   1.0000   1.0000   1.0000
     1.0000   1.0570   0.8843   0.0000   0.0000   0.0000   0.0000   0.0000

          k = 0.0000-0.5774 0.0000 ( 19154 PWs)   bands (ev):

  -128.6456-127.3500 -82.8528 -82.8515 -82.7431 -81.5600 -81.5398 -81.5382
   -21.3495 -19.6439 -10.1630  -9.8717  -9.8299  -9.6589  -9.4194  -9.2193
    -9.1362  -8.9614  -8.2540  -8.2458  -8.1834  -7.1636  -6.1367  -5.5955
    -4.4766  -3.2222  -2.3599  -2.3036   1.9999   2.7560   4.5197   4.6491

     occupation numbers 
     1.0000   1.0000   1.0000   1.0000   1.0000   1.0000   1.0000   1.0000
     1.0000   1.0000   1.0000   1.0000   1.0000   1.0000   1.0000   1.0000
     1.0000   1.0000   1.0000   1.0000   1.0000   1.0000   1.0000   1.0000
     1.0000   0.9317   0.0000   0.0000   0.0000   0.0000   0.0000   0.0000

          k = 0.0833 0.1443 0.0000 ( 18949 PWs)   bands (ev):

  -128.6457-127.3501 -82.8513 -82.8510 -82.7432 -81.5602 -81.5379 -81.5376
   -21.7274 -19.8482 -10.0673  -9.8579  -9.7218  -9.6804  -9.6368  -9.4911
    -9.2664  -9.2122  -9.0532  -8.3478  -8.3214  -6.9525  -5.2588  -4.8194
    -4.6574  -3.3196  -3.0188  -0.9324   0.2041   1.3329   1.4362   1.5663

     occupation numbers 
     1.0000   1.0000   1.0000   1.0000   1.0000   1.0000   1.0000   1.0000
     1.0000   1.0000   1.0000   1.0000   1.0000   1.0000   1.0000   1.0000
     1.0000   1.0000   1.0000   1.0000   1.0000   1.0000   1.0000   1.0000
     1.0000   1.0763   0.2479   0.0000   0.0000   0.0000   0.0000   0.0000

          k = 0.0833 0.2406 0.0000 ( 19034 PWs)   bands (ev):

  -128.6457-127.3501 -82.8517 -82.8512 -82.7432 -81.5602 -81.5384 -81.5378
   -21.6294 -19.7946 -10.0273  -9.9303  -9.7272  -9.6842  -9.5911  -9.3765
    -9.2708  -9.1609  -8.8629  -8.3451  -8.2370  -6.8153  -5.7423  -5.0060
    -4.6766  -3.6281  -3.0936  -0.2123   0.6212   1.8360   1.9568   2.0968

     occupation numbers 
     1.0000   1.0000   1.0000   1.0000   1.0000   1.0000   1.0000   1.0000
     1.0000   1.0000   1.0000   1.0000   1.0000   1.0000   1.0000   1.0000
     1.0000   1.0000   1.0000   1.0000   1.0000   1.0000   1.0000   1.0000
     1.0000   1.0035   0.4894   0.0000   0.0000   0.0000   0.0000   0.0000

          k = 0.0833 0.3368 0.0000 ( 19101 PWs)   bands (ev):

  -128.6456-127.3501 -82.8522 -82.8513 -82.7431 -81.5601 -81.5390 -81.5380
   -21.5135 -19.7317 -10.0546  -9.9254  -9.7615  -9.6758  -9.5302  -9.2931
    -9.2472  -9.0867  -8.6922  -8.3253  -8.0096  -6.8501  -6.1251  -5.3097
    -4.4550  -3.9095  -3.1771   0.6033   1.1321   2.0629   2.6868   2.7955

     occupation numbers 
     1.0000   1.0000   1.0000   1.0000   1.0000   1.0000   1.0000   1.0000
     1.0000   1.0000   1.0000   1.0000   1.0000   1.0000   1.0000   1.0000
     1.0000   1.0000   1.0000   1.0000   1.0000   1.0000   1.0000   1.0000
     1.0000   1.0000   0.7961   0.0000   0.0000   0.0000   0.0000   0.0000

          k = 0.0833 0.4330 0.0000 ( 19155 PWs)   bands (ev):

  -128.6456-127.3500 -82.8525 -82.8515 -82.7431 -81.5601 -81.5395 -81.5381
   -21.4106 -19.6764 -10.1046  -9.8876  -9.7956  -9.6709  -9.4755  -9.2428
    -9.1830  -9.0107  -8.5770  -8.2848  -7.7977  -7.1471  -6.1660  -5.5784
    -4.3235  -3.7459  -3.2454   0.0782   1.4148   2.1275   3.4893   3.7683

     occupation numbers 
     1.0000   1.0000   1.0000   1.0000   1.0000   1.0000   1.0000   1.0000
     1.0000   1.0000   1.0000   1.0000   1.0000   1.0000   1.0000   1.0000
     1.0000   1.0000   1.0000   1.0000   1.0000   1.0000   1.0000   1.0000
     1.0000   1.0002   0.9853   0.0000   0.0000   0.0000   0.0000   0.0000

          k = 0.0833 0.5292 0.0000 ( 19135 PWs)   bands (ev):

  -128.6456-127.3500 -82.8527 -82.8515 -82.7431 -81.5600 -81.5397 -81.5382
   -21.3502 -19.6440 -10.1294  -9.8695  -9.8149  -9.6696  -9.4428  -9.2169
    -9.1257  -8.9606  -8.4140  -8.2392  -8.0090  -7.1468  -6.1513  -5.7425
    -4.4159  -3.2982  -2.8443  -1.5332   1.9906   2.7742   4.2764   4.4459

     occupation numbers 
     1.0000   1.0000   1.0000   1.0000   1.0000   1.0000   1.0000   1.0000
     1.0000   1.0000   1.0000   1.0000   1.0000   1.0000   1.0000   1.0000
     1.0000   1.0000   1.0000   1.0000   1.0000   1.0000   1.0000   1.0000
     1.0000   1.0620   0.0189   0.0000   0.0000   0.0000   0.0000   0.0000

          k = 0.1667 0.2887 0.0000 ( 19063 PWs)   bands (ev):

  -128.6456-127.3501 -82.8520 -82.8513 -82.7431 -81.5601 -81.5388 -81.5380
   -21.5294 -19.7403 -10.0005  -9.9619  -9.7401  -9.6712  -9.5729  -9.2985
    -9.2433  -9.1148  -8.7196  -8.3315  -8.0334  -6.7833  -6.0620  -5.4092
    -4.4631  -3.8438  -3.2158   0.5087   1.1067   2.3628   2.5938   2.7525

     occupation numbers 
     1.0000   1.0000   1.0000   1.0000   1.0000   1.0000   1.0000   1.0000
     1.0000   1.0000   1.0000   1.0000   1.0000   1.0000   1.0000   1.0000
     1.0000   1.0000   1.0000   1.0000   1.0000   1.0000   1.0000   1.0000
     1.0000   1.0000   0.9148   0.0000   0.0000   0.0000   0.0000   0.0000

          k = 0.1667 0.3849 0.0000 ( 19126 PWs)   bands (ev):

  -128.6456-127.3500 -82.8524 -82.8515 -82.7431 -81.5601 -81.5393 -81.5382
   -21.4275 -19.6851 -10.0310  -9.9164  -9.7600  -9.6753  -9.5359  -9.2454
    -9.1706  -9.0485  -8.6506  -8.2890  -7.7650  -6.9761  -6.2153  -5.7672
    -4.2081  -3.8599  -3.3391   1.0662   1.3105   2.1357   3.0440   3.3909

     occupation numbers 
     1.0000   1.0000   1.0000   1.0000   1.0000   1.0000   1.0000   1.0000
     1.0000   1.0000   1.0000   1.0000   1.0000   1.0000   1.0000   1.0000
     1.0000   1.0000   1.0000   1.0000   1.0000   1.0000   1.0000   1.0000
     1.0000   1.0000   1.0823   0.0000   0.0000   0.0000   0.0000   0.0000

          k = 0.1667 0.4811 0.0000 ( 19131 PWs)   bands (ev):

  -128.6456-127.3500 -82.8526 -82.8517 -82.7431 -81.5600 -81.5395 -81.5384
   -21.3516 -19.6442 -10.0492  -9.8775  -9.7807  -9.6837  -9.5011  -9.2127
    -9.1010  -8.9507  -8.5758  -8.2308  -7.8177  -7.0674  -6.2759  -5.9820
    -4.2741  -3.4845  -3.0974  -0.4759   1.9664   2.3942   3.2175   4.1783

     occupation numbers 
     1.0000   1.0000   1.0000   1.0000   1.0000   1.0000   1.0000   1.0000
     1.0000   1.0000   1.0000   1.0000   1.0000   1.0000   1.0000   1.0000
     1.0000   1.0000   1.0000   1.0000   1.0000   1.0000   1.0000   1.0000
     1.0000   1.0346   0.5032   0.0000   0.0000   0.0000   0.0000   0.0000

          k = 0.1667 0.5774 0.0000 ( 19115 PWs)   bands (ev):

  -128.6456-127.3500 -82.8526 -82.8517 -82.7431 -81.5600 -81.5396 -81.5384
   -21.3236 -19.6291 -10.0538  -9.8635  -9.7899  -9.6875  -9.4871  -9.2012
    -9.0798  -8.8987  -8.4631  -8.1897  -8.0466  -7.0214  -6.2620  -6.0845
    -4.3180  -3.5012  -2.0392  -1.8778   2.2662   2.3539   3.7482   4.6892

     occupation numbers 
     1.0000   1.0000   1.0000   1.0000   1.0000   1.0000   1.0000   1.0000
     1.0000   1.0000   1.0000   1.0000   1.0000   1.0000   1.0000   1.0000
     1.0000   1.0000   1.0000   1.0000   1.0000   1.0000   1.0000   1.0000
     1.0000   1.0282   0.0000   0.0000   0.0000   0.0000   0.0000   0.0000

          k = 0.2500 0.4330 0.0000 ( 19111 PWs)   bands (ev):

  -128.6456-127.3500 -82.8525 -82.8518 -82.7431 -81.5600 -81.5394 -81.5385
   -21.3524 -19.6443  -9.9914  -9.8971  -9.7715  -9.6701  -9.5445  -9.2108
    -9.0871  -8.9359  -8.6528  -8.2270  -7.7353  -6.9581  -6.4736  -6.0328
    -4.1776  -3.6047  -3.1706   0.4807   1.3753   1.9554   3.0754   4.1142

     occupation numbers 
     1.0000   1.0000   1.0000   1.0000   1.0000   1.0000   1.0000   1.0000
     1.0000   1.0000   1.0000   1.0000   1.0000   1.0000   1.0000   1.0000
     1.0000   1.0000   1.0000   1.0000   1.0000   1.0000   1.0000   1.0000
     1.0000   1.0055   0.7739   0.0000   0.0000   0.0000   0.0000   0.0000

          k = 0.2500 0.5292 0.0000 ( 19130 PWs)   bands (ev):

  -128.6456-127.3500 -82.8525 -82.8520 -82.7431 -81.5600 -81.5394 -81.5387
   -21.3087 -19.6205  -9.9646  -9.8707  -9.7965  -9.6630  -9.5484  -9.1919
    -9.0646  -8.7622  -8.5891  -8.2078  -7.9664  -6.8737  -6.6218  -6.1550
    -4.1675  -3.7282  -2.1724  -0.7953   0.8005   2.4068   4.0822   4.8513

     occupation numbers 
     1.0000   1.0000   1.0000   1.0000   1.0000   1.0000   1.0000   1.0000
     1.0000   1.0000   1.0000   1.0000   1.0000   1.0000   1.0000   1.0000
     1.0000   1.0000   1.0000   1.0000   1.0000   1.0000   1.0000   1.0000
     1.0000   1.0004   0.0000   0.0000   0.0000   0.0000   0.0000   0.0000

          k = 0.3333 0.5774 0.0000 ( 19131 PWs)   bands (ev):

  -128.6456-127.3500 -82.8523 -82.8523 -82.7431 -81.5600 -81.5392 -81.5390
   -21.2930 -19.6118  -9.9036  -9.8716  -9.8319  -9.6081  -9.6067  -9.1845
    -9.0593  -8.6514  -8.4213  -8.4120  -8.0081  -6.8524  -6.7134  -6.2191
    -4.0070  -3.9474  -1.3219  -0.6401  -0.5886   2.5778   4.8636   4.9720

     occupation numbers 
     1.0000   1.0000   1.0000   1.0000   1.0000   1.0000   1.0000   1.0000
     1.0000   1.0000   1.0000   1.0000   1.0000   1.0000   1.0000   1.0000
     1.0000   1.0000   1.0000   1.0000   1.0000   1.0000   1.0000   1.0000
     1.0000   1.0000   0.0000   0.0000   0.0000   0.0000   0.0000   0.0000

     the Fermi energy is    -3.0687 ev

!    total energy              =   -1007.47461808 Ry
     estimated scf accuracy    <       0.00000002 Ry
     smearing contrib. (-TS)   =      -0.00038853 Ry
     internal energy E=F+TS    =   -1007.47422955 Ry

     The total energy is F=E-TS. E is the sum of the following terms:
     one-electron contribution =  -15072.81513752 Ry
     hartree contribution      =    7533.62821666 Ry
     xc contribution           =     -99.69708852 Ry
     ewald contribution        =    6650.44788735 Ry
     one-center paw contrib.   =     -19.03810753 Ry
      -> PAW hartree energy AE =      51.42159850 Ry
      -> PAW hartree energy PS =     -51.17840587 Ry
      -> PAW xc energy AE      =     -33.20785539 Ry
      -> PAW xc energy PS      =      13.92655523 Ry
      -> total E_H with PAW    =    7533.87140930 Ry
      -> total E_XC with PAW   =    -118.97838868 Ry

     convergence has been achieved in  17 iterations

     negative rho (up, down):  3.761E-04 0.000E+00

     Forces acting on atoms (cartesian axes, Ry/au):

     atom    1 type  2   force =     0.00000000    0.00000000    0.05459846
     atom    2 type  2   force =     0.00000000    0.00000000   -0.00581808
     atom    3 type  1   force =     0.00000000    0.00000000    0.16817941
     atom    4 type  1   force =     0.00000000    0.00000000   -0.01235038
     atom    5 type  3   force =     0.00000000   -0.00000000   -0.20460940
     The non-local contrib.  to forces
     atom    1 type  2   force =     0.00000000    0.00000000   -0.00533776
     atom    2 type  2   force =     0.00000000    0.00000000   -0.37925420
     atom    3 type  1   force =     0.00000000    0.00000000    1.11540134
     atom    4 type  1   force =     0.00000000    0.00000000   -0.04741972
     atom    5 type  3   force =     0.00000000   -0.00000000   -0.05584754
     The ionic contribution  to forces
     atom    1 type  2   force =    -0.00000057    0.00000033  109.65841010
     atom    2 type  2   force =     0.00000005   -0.00000003 -229.13002550
     atom    3 type  1   force =    -0.00000000    0.00000000   93.68946128
     atom    4 type  1   force =     0.00000053   -0.00000030    7.31024014
     atom    5 type  3   force =    -0.00000000    0.00000000   18.47191398
     The local contribution  to forces
     atom    1 type  2   force =    -0.00001936    0.00001118 -109.59939604
     atom    2 type  2   force =     0.00001961   -0.00001132  229.50297031
     atom    3 type  1   force =    -0.00000137    0.00000079  -94.62324120
     atom    4 type  1   force =     0.00000113   -0.00000065   -7.27560176
     atom    5 type  3   force =    -0.00000007    0.00000004  -18.62052076
     The core correction contribution to forces
     atom    1 type  2   force =     0.00000000    0.00000000    0.00000000
     atom    2 type  2   force =     0.00000000    0.00000000    0.00000000
     atom    3 type  1   force =    -0.00000000    0.00000000   -0.01346407
     atom    4 type  1   force =     0.00000000   -0.00000000    0.00029813
     atom    5 type  3   force =     0.00000000    0.00000000    0.00000000
     The Hubbard contrib.    to forces
     atom    1 type  2   force =     0.00000000    0.00000000    0.00000000
     atom    2 type  2   force =     0.00000000    0.00000000    0.00000000
     atom    3 type  1   force =     0.00000000    0.00000000    0.00000000
     atom    4 type  1   force =     0.00000000    0.00000000    0.00000000
     atom    5 type  3   force =     0.00000000    0.00000000    0.00000000
     The SCF correction term to forces
     atom    1 type  2   force =     0.00000000   -0.00000000    0.00107846
     atom    2 type  2   force =    -0.00000000    0.00000000    0.00064761
     atom    3 type  1   force =     0.00000000   -0.00000000    0.00017836
     atom    4 type  1   force =    -0.00000000    0.00000000    0.00028914
     atom    5 type  3   force =     0.00000000   -0.00000000    0.00000123

     Total force =     0.270771     Total SCF correction =     0.001303


     Computing stress (Cartesian axis) and pressure


     negative rho (up, down):  3.761E-04 0.000E+00
          total   stress  (Ry/bohr**3)                   (kbar)     P=       -9.75
  -0.00001417   0.00000000   0.00000000           -2.09        0.00        0.00
   0.00000000  -0.00001417   0.00000000            0.00       -2.09        0.00
   0.00000000   0.00000000  -0.00017054            0.00        0.00      -25.09

     kinetic stress (kbar)   3545.24      0.00      0.00
                                0.00   3545.24     -0.00
                                0.00     -0.00   3442.35

     local   stress (kbar)-654758.56     -0.00      0.00
                               -0.00-654758.56     -0.00
                                0.00     -0.00 651212.35

     nonloc. stress (kbar)    -74.11      0.00      0.00
                                0.00    -74.11     -0.00
                               -0.00      0.00    -67.12

     hartree stress (kbar) 332637.69     -0.00      0.00
                               -0.00 332637.69     -0.00
                                0.00     -0.00-318791.47

     exc-cor stress (kbar)  -1425.37      0.00     -0.00
                                0.00  -1425.37      0.00
                               -0.00      0.00  -1423.04

     corecor stress (kbar)    -39.12     -0.00     -0.00
                               -0.00    -39.12      0.00
                               -0.00      0.00    -38.86

     ewald   stress (kbar) 320112.15      0.00     -0.00
                                0.00 320112.15      0.00
                               -0.00      0.00-334359.30

     hubbard stress (kbar)      0.00      0.00      0.00
                                0.00      0.00      0.00
                                0.00      0.00      0.00

     DFT-D   stress (kbar)      0.00      0.00      0.00
                                0.00      0.00      0.00
                                0.00      0.00      0.00

     XDM     stress (kbar)      0.00      0.00      0.00
                                0.00      0.00      0.00
                                0.00      0.00      0.00

     dft-nl  stress (kbar)      0.00      0.00      0.00
                                0.00      0.00      0.00
                                0.00      0.00      0.00

     TS-vdW  stress (kbar)      0.00      0.00      0.00
                                0.00      0.00      0.00
                                0.00      0.00      0.00

     MDB     stress (kbar)      0.00      0.00      0.00
                                0.00      0.00      0.00
                                0.00      0.00      0.00

     3D-RISM stress (kbar)      0.00      0.00      0.00
                                0.00      0.00      0.00
                                0.00      0.00      0.00


     Writing all to output data dir ./temp_hexag/aiida.save/ :
     XML data file, charge density, pseudopotentials, collected wavefunctions

     init_run     :    178.53s CPU     12.30s WALL (       1 calls)
     electrons    :   7993.27s CPU    528.52s WALL (       1 calls)
     forces       :     74.66s CPU      6.61s WALL (       1 calls)
     stress       :     90.95s CPU     11.41s WALL (       1 calls)

     Called by init_run:
     wfcinit      :    167.79s CPU     10.19s WALL (       1 calls)
     wfcinit:atom :      1.38s CPU      0.06s WALL (      19 calls)
     wfcinit:wfcr :    160.02s CPU      9.59s WALL (      19 calls)
     potinit      :      4.72s CPU      0.43s WALL (       1 calls)
     hinit0       :      1.99s CPU      0.36s WALL (       1 calls)

     Called by electrons:
     c_bands      :   6506.51s CPU    417.14s WALL (      17 calls)
     sum_band     :   1377.46s CPU     86.82s WALL (      17 calls)
     v_of_rho     :     26.02s CPU      3.84s WALL (      18 calls)
     v_h          :      7.17s CPU      0.59s WALL (      18 calls)
     v_xc         :     20.85s CPU      3.61s WALL (      20 calls)
     newd         :     40.61s CPU     19.20s WALL (      18 calls)
     PAW_pot      :     28.77s CPU      1.24s WALL (      18 calls)
     mix_rho      :     10.75s CPU      1.01s WALL (      17 calls)

     Called by c_bands:
     init_us_2    :     50.40s CPU      4.66s WALL (     703 calls)
     cegterg      :   6457.45s CPU    411.40s WALL (     323 calls)

     Called by sum_band:
     sum_band:wei :      0.00s CPU      0.00s WALL (      17 calls)
     sum_band:loo :   1347.10s CPU     64.48s WALL (      17 calls)
     sum_band:buf :      3.34s CPU      0.41s WALL (     323 calls)
     sum_band:ini :     22.59s CPU      1.59s WALL (     323 calls)
     sum_band:cal :    123.16s CPU     11.65s WALL (     323 calls)
     sum_band:bec :     15.98s CPU      1.26s WALL (     323 calls)
     addusdens    :     26.44s CPU     21.62s WALL (      17 calls)
                                        0.00s GPU  (      17 calls)
     addusd:skk   :      2.08s CPU      0.09s WALL (      51 calls)
                                        0.00s GPU  (      51 calls)

     Called by *egterg:
     cdiaghg      :     21.08s CPU      1.29s WALL (    1682 calls)
     cegterg:over :    115.51s CPU     27.40s WALL (    1359 calls)
     cegterg:upda :    206.17s CPU     22.79s WALL (    1359 calls)
     cegterg:last :     86.81s CPU     41.58s WALL (     589 calls)
     h_psi        :   5806.08s CPU    279.29s WALL (    1701 calls)
     s_psi        :    287.15s CPU     28.45s WALL (    1701 calls)
     g_psi        :     18.32s CPU      1.62s WALL (    1359 calls)

     Called by h_psi:
     h_psi:calbec :    354.12s CPU     28.15s WALL (    1701 calls)
     vloc_psi     :   5330.99s CPU    224.72s WALL (    1701 calls)
     add_vuspsi   :     92.22s CPU     24.90s WALL (    1701 calls)

     General routines
     calbec       :    507.95s CPU     43.14s WALL (    2119 calls)
     fft          :     20.70s CPU      3.61s WALL (     257 calls)
     ffts         :      1.99s CPU      0.17s WALL (      35 calls)
     fftw         :   4778.67s CPU    201.68s WALL (   58684 calls)
     interpolate  :      4.23s CPU      0.40s WALL (      18 calls)

     Parallel routines

     PAW routines
     PAW_pot      :     28.77s CPU      1.24s WALL (      18 calls)
     PAW_symme    :      0.00s CPU      0.00s WALL (      35 calls)

     PWSCF        :      2h19m CPU   9m22.23s WALL


   This run was terminated on:  20:10:57  14Jun2024            

=------------------------------------------------------------------------------=
   JOB DONE.
=------------------------------------------------------------------------------=
