
     Program PWSCF v.7.3.1 starts on 14Jun2024 at 19:24:54 

     This program is part of the open-source Quantum ESPRESSO suite
     for quantum simulation of materials; please cite
         "P. Giannozzi et al., J. Phys.:Condens. Matter 21 395502 (2009);
         "P. Giannozzi et al., J. Phys.:Condens. Matter 29 465901 (2017);
         "P. Giannozzi et al., J. Chem. Phys. 152 154105 (2020);
          URL http://www.quantum-espresso.org", 
     in publications or presentations arising from this work. More details at
     http://www.quantum-espresso.org/quote

     Parallel version (MPI & OpenMP), running on      24 processor cores
     Number of MPI processes:                 1
     Threads/MPI process:                    24

     MPI processes distributed on     1 nodes
     5527 MiB available memory on the printing compute node when the environment starts

     Waiting for input...
     Reading input from standard input

     Current dimensions of program PWSCF are:
     Max number of different atomic species (ntypx) = 10
     Max number of k-points (npk) =  40000
     Max angular momentum in pseudopotentials (lmaxx) =  4
     file O.pbe-n-kjpaw_psl.0.1.UPF: wavefunction(s)  2P renormalized
     Message from routine setup:
     using ibrav=0 with symmetry is DISCOURAGED, use correct ibrav instead

     Subspace diagonalization in iterative solution of the eigenvalue problem:
     a serial algorithm will be used


     G-vector sticks info
     --------------------
     sticks:   dense  smooth     PW     G-vecs:    dense   smooth      PW
     Sum        1039     511    151               432659   152803   25137

     Using Slab Decomposition



     bravais-lattice index     =            0
     lattice parameter (alat)  =       6.1177  a.u.
     unit-cell volume          =    3198.5179 (a.u.)^3
     number of atoms/cell      =            5
     number of atomic types    =            3
     number of electrons       =        53.00
     number of Kohn-Sham states=           32
     kinetic-energy cutoff     =      50.0000  Ry
     charge density cutoff     =     400.0000  Ry
     scf convergence threshold =      2.0E-08
     mixing beta               =       0.4000
     number of iterations used =            8  plain     mixing
     Exchange-correlation= PBE
                           (   1   4   3   4   0   0   0)

     celldm(1)=   6.117707  celldm(2)=   0.000000  celldm(3)=   0.000000
     celldm(4)=   0.000000  celldm(5)=   0.000000  celldm(6)=   0.000000

     crystal axes: (cart. coord. in units of alat)
               a(1) = (   1.000000   0.000000   0.000000 )  
               a(2) = (  -0.500000   0.866025   0.000000 )  
               a(3) = (   0.000000   0.000000  16.130661 )  

     reciprocal axes: (cart. coord. in units 2 pi/alat)
               b(1) = (  1.000000  0.577350 -0.000000 )  
               b(2) = (  0.000000  1.154701  0.000000 )  
               b(3) = (  0.000000 -0.000000  0.061994 )  


     PseudoPot. # 1 for O  read from file:
     ../SSSP_1.3.0_PBE_efficiency/O.pbe-n-kjpaw_psl.0.1.UPF
     MD5 check sum: 0234752ac141de4415c5fc33072bef88
     Pseudo is Projector augmented-wave + core cor, Zval =  6.0
     Generated using "atomic" code by A. Dal Corso  v.5.0.99 svn rev. 10869
     Shape of augmentation charge: BESSEL
     Using radial grid of 1095 points,  4 beta functions with: 
                l(1) =   0
                l(2) =   0
                l(3) =   1
                l(4) =   1
     Q(r) pseudized with 0 coefficients 


     PseudoPot. # 2 for Zn read from file:
     ../SSSP_1.3.0_PBE_efficiency/Zn_pbe_v1.uspp.F.UPF
     MD5 check sum: df62231357ef9e81f77b2b3087fa5675
     Pseudo is Ultrasoft, Zval = 20.0
     Generated by new atomic code, or converted to UPF format
     Using radial grid of  943 points,  6 beta functions with: 
                l(1) =   0
                l(2) =   0
                l(3) =   1
                l(4) =   1
                l(5) =   2
                l(6) =   2
     Q(r) pseudized with  8 coefficients,  rinner =    1.100   1.100   1.100
                                                       1.100   1.100

     PseudoPot. # 3 for H  read from file:
     ../SSSP_1.3.0_PBE_efficiency/H.pbe-rrkjus_psl.1.0.0.UPF
     MD5 check sum: f52b6d4d1c606e5624b1dc7b2218f220
     Pseudo is Ultrasoft, Zval =  1.0
     Generated using "atomic" code by A. Dal Corso  v.5.1
     Using radial grid of  929 points,  2 beta functions with: 
                l(1) =   0
                l(2) =   0
     Q(r) pseudized with 0 coefficients 


     atomic species   valence    mass     pseudopotential
     O                 6.00    15.99940     O ( 1.00)
     Zn               20.00    65.38000     Zn( 1.00)
     H                 1.00     1.00794     H ( 1.00)

      6 Sym. Ops. (no inversion) found


                                    s                        frac. trans.

      isym =  1     identity                                     

 cryst.   s( 1) = (     1          0          0      )
                  (     0          1          0      )
                  (     0          0          1      )

 cart.    s( 1) = (  1.0000000  0.0000000  0.0000000 )
                  (  0.0000000  1.0000000  0.0000000 )
                  (  0.0000000  0.0000000  1.0000000 )


      isym =  2     120 deg rotation - cryst. axis [0,0,1]       

 cryst.   s( 2) = (     0          1          0      )
                  (    -1         -1          0      )
                  (     0          0          1      )

 cart.    s( 2) = ( -0.5000000 -0.8660254  0.0000000 )
                  (  0.8660254 -0.5000000  0.0000000 )
                  (  0.0000000  0.0000000  1.0000000 )


      isym =  3     120 deg rotation - cryst. axis [0,0,-1]      

 cryst.   s( 3) = (    -1         -1          0      )
                  (     1          0          0      )
                  (     0          0          1      )

 cart.    s( 3) = ( -0.5000000  0.8660254  0.0000000 )
                  ( -0.8660254 -0.5000000  0.0000000 )
                  (  0.0000000  0.0000000  1.0000000 )


      isym =  4     inv. 180 deg rotation - cart. axis [1,0,0]   

 cryst.   s( 4) = (    -1          0          0      )
                  (     1          1          0      )
                  (     0          0          1      )

 cart.    s( 4) = ( -1.0000000  0.0000000  0.0000000 )
                  (  0.0000000  1.0000000  0.0000000 )
                  (  0.0000000  0.0000000  1.0000000 )


      isym =  5     inv. 180 deg rotation - cryst. axis [0,1,0]  

 cryst.   s( 5) = (     1          1          0      )
                  (     0         -1          0      )
                  (     0          0          1      )

 cart.    s( 5) = (  0.5000000  0.8660254  0.0000000 )
                  (  0.8660254 -0.5000000  0.0000000 )
                  (  0.0000000  0.0000000  1.0000000 )


      isym =  6     inv. 180 deg rotation - cryst. axis [1,1,0]  

 cryst.   s( 6) = (     0         -1          0      )
                  (    -1          0          0      )
                  (     0          0          1      )

 cart.    s( 6) = (  0.5000000 -0.8660254  0.0000000 )
                  ( -0.8660254 -0.5000000  0.0000000 )
                  (  0.0000000  0.0000000  1.0000000 )


   Cartesian axes

     site n.     atom                  positions (alat units)
         1        Zn     tau(   1) = (   0.5000000   0.2886751   0.8074875  )
         2        Zn     tau(   2) = (  -0.0000000   0.5773503   0.0009545  )
         3        O      tau(   3) = (   0.5000000   0.2886751   1.4190438  )
         4        O      tau(   4) = (  -0.0000000   0.5773503   0.6125107  )
         5        H      tau(   5) = (   0.5000000   0.2886751   2.0163327  )

   Crystallographic axes

     site n.     atom                  positions (cryst. coord.)
         1        Zn     tau(   1) = (  0.6666667  0.3333333  0.0500592  )
         2        Zn     tau(   2) = (  0.3333333  0.6666667  0.0000592  )
         3        O      tau(   3) = (  0.6666667  0.3333333  0.0879718  )
         4        O      tau(   4) = (  0.3333333  0.6666667  0.0379718  )
         5        H      tau(   5) = (  0.6666667  0.3333333  0.1250000  )

     number of k points=    19  Marzari-Vanderbilt smearing, width (Ry)=  0.0147
                       cart. coord. in units 2pi/alat
        k(    1) = (   0.0000000   0.0000000   0.0000000), wk =   0.0138889
        k(    2) = (   0.0000000   0.0962250   0.0000000), wk =   0.0833333
        k(    3) = (   0.0000000   0.1924501   0.0000000), wk =   0.0833333
        k(    4) = (   0.0000000   0.2886751   0.0000000), wk =   0.0833333
        k(    5) = (   0.0000000   0.3849002   0.0000000), wk =   0.0833333
        k(    6) = (   0.0000000   0.4811252   0.0000000), wk =   0.0833333
        k(    7) = (   0.0000000  -0.5773503   0.0000000), wk =   0.0416667
        k(    8) = (   0.0833333   0.1443376   0.0000000), wk =   0.0833333
        k(    9) = (   0.0833333   0.2405626   0.0000000), wk =   0.1666667
        k(   10) = (   0.0833333   0.3367877   0.0000000), wk =   0.1666667
        k(   11) = (   0.0833333   0.4330127   0.0000000), wk =   0.1666667
        k(   12) = (   0.0833333   0.5292377   0.0000000), wk =   0.1666667
        k(   13) = (   0.1666667   0.2886751   0.0000000), wk =   0.0833333
        k(   14) = (   0.1666667   0.3849002   0.0000000), wk =   0.1666667
        k(   15) = (   0.1666667   0.4811252   0.0000000), wk =   0.1666667
        k(   16) = (   0.1666667   0.5773503   0.0000000), wk =   0.0833333
        k(   17) = (   0.2500000   0.4330127   0.0000000), wk =   0.0833333
        k(   18) = (   0.2500000   0.5292377   0.0000000), wk =   0.1666667
        k(   19) = (   0.3333333   0.5773503   0.0000000), wk =   0.0277778

                       cryst. coord.
        k(    1) = (   0.0000000   0.0000000   0.0000000), wk =   0.0138889
        k(    2) = (   0.0000000   0.0833333   0.0000000), wk =   0.0833333
        k(    3) = (   0.0000000   0.1666667   0.0000000), wk =   0.0833333
        k(    4) = (   0.0000000   0.2500000   0.0000000), wk =   0.0833333
        k(    5) = (   0.0000000   0.3333333   0.0000000), wk =   0.0833333
        k(    6) = (   0.0000000   0.4166667   0.0000000), wk =   0.0833333
        k(    7) = (   0.0000000  -0.5000000   0.0000000), wk =   0.0416667
        k(    8) = (   0.0833333   0.0833333   0.0000000), wk =   0.0833333
        k(    9) = (   0.0833333   0.1666667   0.0000000), wk =   0.1666667
        k(   10) = (   0.0833333   0.2500000   0.0000000), wk =   0.1666667
        k(   11) = (   0.0833333   0.3333333   0.0000000), wk =   0.1666667
        k(   12) = (   0.0833333   0.4166667   0.0000000), wk =   0.1666667
        k(   13) = (   0.1666667   0.1666667   0.0000000), wk =   0.0833333
        k(   14) = (   0.1666667   0.2500000   0.0000000), wk =   0.1666667
        k(   15) = (   0.1666667   0.3333333   0.0000000), wk =   0.1666667
        k(   16) = (   0.1666667   0.4166667   0.0000000), wk =   0.0833333
        k(   17) = (   0.2500000   0.2500000   0.0000000), wk =   0.0833333
        k(   18) = (   0.2500000   0.3333333   0.0000000), wk =   0.1666667
        k(   19) = (   0.3333333   0.3333333   0.0000000), wk =   0.0277778

     Dense  grid:   432659 G-vectors     FFT dimensions: (  40,  40, 640)

     Smooth grid:   152803 G-vectors     FFT dimensions: (  27,  27, 450)

     Dynamical RAM for                 wfc:       9.32 MB

     Dynamical RAM for     wfc (w. buffer):     186.48 MB

     Dynamical RAM for           str. fact:      19.81 MB

     Dynamical RAM for           local pot:       0.00 MB

     Dynamical RAM for          nlocal pot:      15.73 MB

     Dynamical RAM for                qrad:       4.82 MB

     Dynamical RAM for          rho,v,vnew:      43.24 MB

     Dynamical RAM for               rhoin:      14.41 MB

     Dynamical RAM for            rho*nmix:     105.63 MB

     Dynamical RAM for           G-vectors:      25.92 MB

     Dynamical RAM for          h,s,v(r/c):       0.19 MB

     Dynamical RAM for          <psi|beta>:       0.03 MB

     Dynamical RAM for                 psi:      18.65 MB

     Dynamical RAM for                hpsi:      18.65 MB

     Dynamical RAM for                spsi:      18.65 MB

     Dynamical RAM for      wfcinit/wfcrot:      20.43 MB

     Dynamical RAM for           addusdens:    1241.15 MB

     Dynamical RAM for          addusforce:    1257.66 MB

     Dynamical RAM for         addusstress:    1326.97 MB

     Estimated static dynamical RAM per process >     375.89 MB

     Estimated max dynamical RAM per process >       1.77 GB

     Initial potential from superposition of free atoms

     starting charge      52.9997, renormalised to      53.0000

     negative rho (up, down):  3.321E-04 0.000E+00
     Starting wfcs are   35 randomized atomic wfcs
     Checking if some PAW data can be deallocated... 

     total cpu time spent up to now is       16.9 secs

     Self-consistent Calculation

     iteration #  1     ecut=    50.00 Ry     beta= 0.40
     Davidson diagonalization with overlap

---- Real-time Memory Report at c_bands before calling an iterative solver
          1404 MiB given to the printing process from OS
             0 MiB allocation reported by mallinfo(arena+hblkhd)
          5143 MiB available memory on the node where the printing process lives
------------------
     ethr =  1.00E-02,  avg # of iterations =  4.4

     negative rho (up, down):  1.867E-04 0.000E+00

     total cpu time spent up to now is       50.4 secs

     total energy              =   -1005.68210443 Ry
     estimated scf accuracy    <       3.15919392 Ry

     iteration #  2     ecut=    50.00 Ry     beta= 0.40
     Davidson diagonalization with overlap

---- Real-time Memory Report at c_bands before calling an iterative solver
          1677 MiB given to the printing process from OS
             0 MiB allocation reported by mallinfo(arena+hblkhd)
          5078 MiB available memory on the node where the printing process lives
------------------
     ethr =  5.96E-03,  avg # of iterations =  8.1

     negative rho (up, down):  7.925E-04 0.000E+00

     total cpu time spent up to now is      141.5 secs

     total energy              =    -999.60280968 Ry
     estimated scf accuracy    <     253.07214028 Ry

     iteration #  3     ecut=    50.00 Ry     beta= 0.40
     Davidson diagonalization with overlap

---- Real-time Memory Report at c_bands before calling an iterative solver
          1682 MiB given to the printing process from OS
             0 MiB allocation reported by mallinfo(arena+hblkhd)
          5066 MiB available memory on the node where the printing process lives
------------------
     ethr =  5.96E-03,  avg # of iterations =  8.3

     negative rho (up, down):  4.915E-04 0.000E+00

     total cpu time spent up to now is      257.2 secs

     total energy              =   -1006.64892238 Ry
     estimated scf accuracy    <       5.98076151 Ry

     iteration #  4     ecut=    50.00 Ry     beta= 0.40
     Davidson diagonalization with overlap

---- Real-time Memory Report at c_bands before calling an iterative solver
          1689 MiB given to the printing process from OS
             0 MiB allocation reported by mallinfo(arena+hblkhd)
          5076 MiB available memory on the node where the printing process lives
------------------
     ethr =  5.96E-03,  avg # of iterations =  2.5

     negative rho (up, down):  2.353E-04 0.000E+00

     total cpu time spent up to now is      330.5 secs

     total energy              =   -1007.18353610 Ry
     estimated scf accuracy    <       1.06720601 Ry

     iteration #  5     ecut=    50.00 Ry     beta= 0.40
     Davidson diagonalization with overlap

---- Real-time Memory Report at c_bands before calling an iterative solver
          1696 MiB given to the printing process from OS
             0 MiB allocation reported by mallinfo(arena+hblkhd)
          5058 MiB available memory on the node where the printing process lives
------------------
     ethr =  2.01E-03,  avg # of iterations =  1.1

     negative rho (up, down):  1.663E-04 0.000E+00

     total cpu time spent up to now is      399.2 secs

     total energy              =   -1007.20069832 Ry
     estimated scf accuracy    <       0.31130845 Ry

     iteration #  6     ecut=    50.00 Ry     beta= 0.40
     Davidson diagonalization with overlap

---- Real-time Memory Report at c_bands before calling an iterative solver
          1701 MiB given to the printing process from OS
             0 MiB allocation reported by mallinfo(arena+hblkhd)
          5054 MiB available memory on the node where the printing process lives
------------------
     ethr =  5.87E-04,  avg # of iterations =  1.4

     negative rho (up, down):  1.588E-04 0.000E+00

     total cpu time spent up to now is      465.1 secs

     total energy              =   -1007.19979022 Ry
     estimated scf accuracy    <       0.08264862 Ry

     iteration #  7     ecut=    50.00 Ry     beta= 0.40
     Davidson diagonalization with overlap

---- Real-time Memory Report at c_bands before calling an iterative solver
          1706 MiB given to the printing process from OS
             0 MiB allocation reported by mallinfo(arena+hblkhd)
          5049 MiB available memory on the node where the printing process lives
------------------
     ethr =  1.56E-04,  avg # of iterations =  2.5

     negative rho (up, down):  1.787E-04 0.000E+00

     total cpu time spent up to now is      534.5 secs

     total energy              =   -1007.19230735 Ry
     estimated scf accuracy    <       0.06095671 Ry

     iteration #  8     ecut=    50.00 Ry     beta= 0.40
     Davidson diagonalization with overlap

---- Real-time Memory Report at c_bands before calling an iterative solver
          1710 MiB given to the printing process from OS
             0 MiB allocation reported by mallinfo(arena+hblkhd)
          5039 MiB available memory on the node where the printing process lives
------------------
     ethr =  1.15E-04,  avg # of iterations =  2.6

     negative rho (up, down):  1.845E-04 0.000E+00

     total cpu time spent up to now is      606.7 secs

     total energy              =   -1007.19242195 Ry
     estimated scf accuracy    <       0.03003051 Ry

     iteration #  9     ecut=    50.00 Ry     beta= 0.40
     Davidson diagonalization with overlap

---- Real-time Memory Report at c_bands before calling an iterative solver
          1715 MiB given to the printing process from OS
             0 MiB allocation reported by mallinfo(arena+hblkhd)
          5031 MiB available memory on the node where the printing process lives
------------------
     ethr =  5.67E-05,  avg # of iterations =  3.8

     negative rho (up, down):  1.983E-04 0.000E+00

     total cpu time spent up to now is      679.6 secs

     total energy              =   -1007.19016386 Ry
     estimated scf accuracy    <       0.02876250 Ry

     iteration # 10     ecut=    50.00 Ry     beta= 0.40
     Davidson diagonalization with overlap

---- Real-time Memory Report at c_bands before calling an iterative solver
          1720 MiB given to the printing process from OS
             0 MiB allocation reported by mallinfo(arena+hblkhd)
          5021 MiB available memory on the node where the printing process lives
------------------
     ethr =  5.43E-05,  avg # of iterations =  2.3

     negative rho (up, down):  2.028E-04 0.000E+00

     total cpu time spent up to now is      748.3 secs

     total energy              =   -1007.19032529 Ry
     estimated scf accuracy    <       0.05227970 Ry

     iteration # 11     ecut=    50.00 Ry     beta= 0.40
     Davidson diagonalization with overlap

---- Real-time Memory Report at c_bands before calling an iterative solver
          1723 MiB given to the printing process from OS
             0 MiB allocation reported by mallinfo(arena+hblkhd)
          5025 MiB available memory on the node where the printing process lives
------------------
     ethr =  5.43E-05,  avg # of iterations =  1.7

     negative rho (up, down):  2.324E-04 0.000E+00

     total cpu time spent up to now is      815.6 secs

     total energy              =   -1007.18712680 Ry
     estimated scf accuracy    <       0.01153478 Ry

     iteration # 12     ecut=    50.00 Ry     beta= 0.40
     Davidson diagonalization with overlap

---- Real-time Memory Report at c_bands before calling an iterative solver
          1724 MiB given to the printing process from OS
             0 MiB allocation reported by mallinfo(arena+hblkhd)
          5024 MiB available memory on the node where the printing process lives
------------------
     ethr =  2.18E-05,  avg # of iterations = 11.4

     negative rho (up, down):  2.500E-04 0.000E+00

     total cpu time spent up to now is      870.1 secs

     total energy              =   -1007.18769198 Ry
     estimated scf accuracy    <       0.01668690 Ry

     iteration # 13     ecut=    50.00 Ry     beta= 0.40
     Davidson diagonalization with overlap

---- Real-time Memory Report at c_bands before calling an iterative solver
          1725 MiB given to the printing process from OS
             0 MiB allocation reported by mallinfo(arena+hblkhd)
          5023 MiB available memory on the node where the printing process lives
------------------
     ethr =  2.18E-05,  avg # of iterations =  2.9

     negative rho (up, down):  2.553E-04 0.000E+00

     total cpu time spent up to now is      899.7 secs

     total energy              =   -1007.18833864 Ry
     estimated scf accuracy    <       0.00575457 Ry

     iteration # 14     ecut=    50.00 Ry     beta= 0.40
     Davidson diagonalization with overlap

---- Real-time Memory Report at c_bands before calling an iterative solver
          1726 MiB given to the printing process from OS
             0 MiB allocation reported by mallinfo(arena+hblkhd)
          5024 MiB available memory on the node where the printing process lives
------------------
     ethr =  1.09E-05,  avg # of iterations =  2.8

     negative rho (up, down):  3.189E-04 0.000E+00

     total cpu time spent up to now is      926.9 secs

     total energy              =   -1007.18846214 Ry
     estimated scf accuracy    <       0.00004635 Ry

     iteration # 15     ecut=    50.00 Ry     beta= 0.40
     Davidson diagonalization with overlap

---- Real-time Memory Report at c_bands before calling an iterative solver
          1726 MiB given to the printing process from OS
             0 MiB allocation reported by mallinfo(arena+hblkhd)
          5021 MiB available memory on the node where the printing process lives
------------------
     ethr =  8.75E-08,  avg # of iterations =  8.6

     negative rho (up, down):  3.638E-04 0.000E+00

     total cpu time spent up to now is      960.1 secs

     total energy              =   -1007.18846421 Ry
     estimated scf accuracy    <       0.00000145 Ry

     iteration # 16     ecut=    50.00 Ry     beta= 0.40
     Davidson diagonalization with overlap

---- Real-time Memory Report at c_bands before calling an iterative solver
          1726 MiB given to the printing process from OS
             0 MiB allocation reported by mallinfo(arena+hblkhd)
          5026 MiB available memory on the node where the printing process lives
------------------
     ethr =  2.73E-09,  avg # of iterations =  2.0

     negative rho (up, down):  3.628E-04 0.000E+00

     total cpu time spent up to now is      989.2 secs

     total energy              =   -1007.18846432 Ry
     estimated scf accuracy    <       0.00000010 Ry

     iteration # 17     ecut=    50.00 Ry     beta= 0.40
     Davidson diagonalization with overlap

---- Real-time Memory Report at c_bands before calling an iterative solver
          1726 MiB given to the printing process from OS
             0 MiB allocation reported by mallinfo(arena+hblkhd)
          5022 MiB available memory on the node where the printing process lives
------------------
     ethr =  1.84E-10,  avg # of iterations =  2.0

     negative rho (up, down):  3.678E-04 0.000E+00

     total cpu time spent up to now is     1023.5 secs

     End of self-consistent calculation

          k = 0.0000 0.0000 0.0000 ( 18895 PWs)   bands (ev):

  -129.0028-127.9143 -83.2065 -83.2065 -83.1030 -82.1441 -82.0824 -82.0824
   -22.2379 -19.4697 -10.5260 -10.1812 -10.1812 -10.0215 -10.0215 -10.0168
    -9.6637  -9.6637  -8.8870  -8.8870  -8.5382  -6.9385  -5.5107  -4.9053
    -4.9053  -3.7425  -3.2744  -3.2744  -1.5602   0.7012   1.1072   1.1538

     occupation numbers 
     1.0000   1.0000   1.0000   1.0000   1.0000   1.0000   1.0000   1.0000
     1.0000   1.0000   1.0000   1.0000   1.0000   1.0000   1.0000   1.0000
     1.0000   1.0000   1.0000   1.0000   1.0000   1.0000   1.0000   1.0000
     1.0000   1.0742   0.0763   0.0763   0.0000   0.0000   0.0000   0.0000

          k = 0.0000 0.0962 0.0000 ( 18926 PWs)   bands (ev):

  -129.0028-127.9143 -83.2066 -83.2065 -83.1030 -82.1441 -82.0826 -82.0825
   -22.2085 -19.4530 -10.5057 -10.2207 -10.1670 -10.0328 -10.0051  -9.9372
    -9.6706  -9.6544  -8.9058  -8.8875  -8.4859  -6.8859  -5.5016  -5.1022
    -4.9782  -3.6977  -3.3535  -3.2910  -1.3196   0.8354   1.2384   1.2859

     occupation numbers 
     1.0000   1.0000   1.0000   1.0000   1.0000   1.0000   1.0000   1.0000
     1.0000   1.0000   1.0000   1.0000   1.0000   1.0000   1.0000   1.0000
     1.0000   1.0000   1.0000   1.0000   1.0000   1.0000   1.0000   1.0000
     1.0000   1.0833   0.2151   0.0971   0.0000   0.0000   0.0000   0.0000

          k = 0.0000 0.1925 0.0000 ( 19042 PWs)   bands (ev):

  -129.0028-127.9142 -83.2070 -83.2066 -83.1030 -82.1440 -82.0831 -82.0826
   -22.1270 -19.4069 -10.4616 -10.2931 -10.1320 -10.0638  -9.9604  -9.7526
    -9.6759  -9.6238  -8.9463  -8.8860  -8.3279  -6.7982  -5.7133  -5.2200
    -5.1782  -3.7629  -3.3978  -3.3363  -0.7259   1.2232   1.6304   1.6811

     occupation numbers 
     1.0000   1.0000   1.0000   1.0000   1.0000   1.0000   1.0000   1.0000
     1.0000   1.0000   1.0000   1.0000   1.0000   1.0000   1.0000   1.0000
     1.0000   1.0000   1.0000   1.0000   1.0000   1.0000   1.0000   1.0000
     1.0000   1.0659   0.3396   0.1758   0.0000   0.0000   0.0000   0.0000

          k = 0.0000 0.2887 0.0000 ( 19096 PWs)   bands (ev):

  -129.0028-127.9142 -83.2074 -83.2068 -83.1029 -82.1440 -82.0836 -82.0828
   -22.0132 -19.3429 -10.4594 -10.3180 -10.1060 -10.0939  -9.8992  -9.6975
    -9.5700  -9.4961  -8.9839  -8.8742  -8.0539  -6.9815  -5.8812  -5.4557
    -5.0402  -4.0351  -3.3978  -3.2359   0.0438   1.7463   2.2738   2.3278

     occupation numbers 
     1.0000   1.0000   1.0000   1.0000   1.0000   1.0000   1.0000   1.0000
     1.0000   1.0000   1.0000   1.0000   1.0000   1.0000   1.0000   1.0000
     1.0000   1.0000   1.0000   1.0000   1.0000   1.0000   1.0000   1.0000
     1.0000   1.0010   0.3394   0.0414   0.0000   0.0000   0.0000   0.0000

          k = 0.0000 0.3849 0.0000 ( 19138 PWs)   bands (ev):

  -129.0027-127.9142 -83.2079 -83.2069 -83.1029 -82.1439 -82.0842 -82.0830
   -21.8964 -19.2775 -10.5135 -10.2780 -10.1480 -10.0671  -9.8371  -9.6673
    -9.5056  -9.2829  -8.9993  -8.8441  -7.8217  -7.3468  -5.7540  -5.7430
    -4.7292  -4.2408  -3.4587  -3.0026   0.5021   1.0519   2.7157   3.1432

     occupation numbers 
     1.0000   1.0000   1.0000   1.0000   1.0000   1.0000   1.0000   1.0000
     1.0000   1.0000   1.0000   1.0000   1.0000   1.0000   1.0000   1.0000
     1.0000   1.0000   1.0000   1.0000   1.0000   1.0000   1.0000   1.0000
     1.0000   1.0000   0.5541   0.0002   0.0000   0.0000   0.0000   0.0000

          k = 0.0000 0.4811 0.0000 ( 19132 PWs)   bands (ev):

  -129.0027-127.9142 -83.2082 -83.2070 -83.1029 -82.1439 -82.0846 -82.0831
   -21.8090 -19.2289 -10.5522 -10.2488 -10.1782 -10.0541  -9.7907  -9.6149
    -9.4564  -9.1105  -8.9519  -8.8033  -8.2193  -7.1053  -5.9638  -5.6864
    -4.6480  -3.7946  -3.5029  -2.7820  -1.1569   1.8049   3.4774   3.9216

     occupation numbers 
     1.0000   1.0000   1.0000   1.0000   1.0000   1.0000   1.0000   1.0000
     1.0000   1.0000   1.0000   1.0000   1.0000   1.0000   1.0000   1.0000
     1.0000   1.0000   1.0000   1.0000   1.0000   1.0000   1.0000   1.0000
     1.0000   1.0511   0.7191   0.0000   0.0000   0.0000   0.0000   0.0000

          k = 0.0000-0.5774 0.0000 ( 19154 PWs)   bands (ev):

  -129.0027-127.9142 -83.2083 -83.2071 -83.1028 -82.1439 -82.0847 -82.0831
   -21.7765 -19.2109 -10.5644 -10.2410 -10.1888 -10.0505  -9.7734  -9.5882
    -9.4390  -9.0610  -8.7828  -8.7544  -8.5932  -6.9337  -6.0477  -5.6913
    -4.6961  -3.5189  -2.8893  -2.7097  -2.4203   2.2325   3.8284   4.0627

     occupation numbers 
     1.0000   1.0000   1.0000   1.0000   1.0000   1.0000   1.0000   1.0000
     1.0000   1.0000   1.0000   1.0000   1.0000   1.0000   1.0000   1.0000
     1.0000   1.0000   1.0000   1.0000   1.0000   1.0000   1.0000   1.0000
     1.0000   0.7762   0.0000   0.0000   0.0000   0.0000   0.0000   0.0000

          k = 0.0833 0.1443 0.0000 ( 18949 PWs)   bands (ev):

  -129.0028-127.9142 -83.2069 -83.2066 -83.1030 -82.1440 -82.0829 -82.0826
   -22.1530 -19.4216 -10.4714 -10.2751 -10.1447 -10.0384  -9.9921  -9.8025
    -9.6805  -9.6326  -8.9338  -8.8881  -8.3809  -6.8116  -5.6087  -5.2556
    -5.1116  -3.7103  -3.4081  -3.3297  -0.9052   1.0977   1.5000   1.5497

     occupation numbers 
     1.0000   1.0000   1.0000   1.0000   1.0000   1.0000   1.0000   1.0000
     1.0000   1.0000   1.0000   1.0000   1.0000   1.0000   1.0000   1.0000
     1.0000   1.0000   1.0000   1.0000   1.0000   1.0000   1.0000   1.0000
     1.0000   1.0826   0.3731   0.1621   0.0000   0.0000   0.0000   0.0000

          k = 0.0833 0.2406 0.0000 ( 19034 PWs)   bands (ev):

  -129.0028-127.9142 -83.2073 -83.2067 -83.1030 -82.1440 -82.0834 -82.0827
   -22.0553 -19.3664 -10.4314 -10.3346 -10.1179 -10.0618  -9.9464  -9.6926
    -9.6236  -9.5529  -8.9696  -8.8827  -8.1599  -6.8466  -5.8481  -5.4505
    -5.0851  -3.9136  -3.3996  -3.3014  -0.2259   1.5842   2.0196   2.0742

     occupation numbers 
     1.0000   1.0000   1.0000   1.0000   1.0000   1.0000   1.0000   1.0000
     1.0000   1.0000   1.0000   1.0000   1.0000   1.0000   1.0000   1.0000
     1.0000   1.0000   1.0000   1.0000   1.0000   1.0000   1.0000   1.0000
     1.0000   1.0109   0.3455   0.1122   0.0000   0.0000   0.0000   0.0000

          k = 0.0833 0.3368 0.0000 ( 19101 PWs)   bands (ev):

  -129.0027-127.9142 -83.2077 -83.2069 -83.1029 -82.1440 -82.0839 -82.0829
   -21.9398 -19.3016 -10.4637 -10.3098 -10.1232 -10.0708  -9.8846  -9.6744
    -9.5455  -9.3619  -8.9954  -8.8590  -7.8417  -7.2161  -5.8339  -5.7260
    -4.8303  -4.1631  -3.4772  -3.0927   0.5689   1.6170   2.4942   2.7858

     occupation numbers 
     1.0000   1.0000   1.0000   1.0000   1.0000   1.0000   1.0000   1.0000
     1.0000   1.0000   1.0000   1.0000   1.0000   1.0000   1.0000   1.0000
     1.0000   1.0000   1.0000   1.0000   1.0000   1.0000   1.0000   1.0000
     1.0000   1.0000   0.6238   0.0023   0.0000   0.0000   0.0000   0.0000

          k = 0.0833 0.4330 0.0000 ( 19155 PWs)   bands (ev):

  -129.0027-127.9142 -83.2081 -83.2070 -83.1029 -82.1439 -82.0844 -82.0831
   -21.8374 -19.2445 -10.5089 -10.2639 -10.1534 -10.0625  -9.8295  -9.6237
    -9.4828  -9.1877  -8.9943  -8.8137  -7.9456  -7.2485  -6.0490  -5.6779
    -4.5767  -4.0886  -3.5406  -2.8553  -0.2271   1.5605   3.1662   3.6796

     occupation numbers 
     1.0000   1.0000   1.0000   1.0000   1.0000   1.0000   1.0000   1.0000
     1.0000   1.0000   1.0000   1.0000   1.0000   1.0000   1.0000   1.0000
     1.0000   1.0000   1.0000   1.0000   1.0000   1.0000   1.0000   1.0000
     1.0000   1.0003   0.8480   0.0000   0.0000   0.0000   0.0000   0.0000

          k = 0.0833 0.5292 0.0000 ( 19135 PWs)   bands (ev):

  -129.0027-127.9142 -83.2083 -83.2071 -83.1029 -82.1439 -82.0846 -82.0832
   -21.7772 -19.2110 -10.5301 -10.2423 -10.1729 -10.0585  -9.7966  -9.5774
    -9.4432  -9.0670  -8.9026  -8.7586  -8.4088  -6.9696  -6.1991  -5.6756
    -4.6387  -3.5926  -3.2193  -2.6830  -1.8315   2.2679   3.7878   4.0872

     occupation numbers 
     1.0000   1.0000   1.0000   1.0000   1.0000   1.0000   1.0000   1.0000
     1.0000   1.0000   1.0000   1.0000   1.0000   1.0000   1.0000   1.0000
     1.0000   1.0000   1.0000   1.0000   1.0000   1.0000   1.0000   1.0000
     1.0000   0.9844   0.0311   0.0000   0.0000   0.0000   0.0000   0.0000

          k = 0.1667 0.2887 0.0000 ( 19063 PWs)   bands (ev):

  -129.0027-127.9142 -83.2076 -83.2069 -83.1029 -82.1440 -82.0838 -82.0829
   -21.9557 -19.3104 -10.4074 -10.3531 -10.1181 -10.0478  -9.9286  -9.6684
    -9.5739  -9.3868  -8.9906  -8.8651  -7.8685  -7.1114  -5.8697  -5.7855
    -4.8500  -4.0991  -3.5128  -3.1214   0.4943   2.0303   2.6384   2.6873

     occupation numbers 
     1.0000   1.0000   1.0000   1.0000   1.0000   1.0000   1.0000   1.0000
     1.0000   1.0000   1.0000   1.0000   1.0000   1.0000   1.0000   1.0000
     1.0000   1.0000   1.0000   1.0000   1.0000   1.0000   1.0000   1.0000
     1.0000   1.0002   0.7546   0.0044   0.0000   0.0000   0.0000   0.0000

          k = 0.1667 0.3849 0.0000 ( 19126 PWs)   bands (ev):

  -129.0027-127.9142 -83.2079 -83.2071 -83.1029 -82.1439 -82.0842 -82.0832
   -21.8542 -19.2535 -10.4326 -10.3011 -10.1301 -10.0504  -9.8907  -9.6097
    -9.5207  -9.2484  -9.0022  -8.8172  -7.6928  -7.3434  -6.2659  -5.6722
    -4.5086  -4.1672  -3.6279  -2.8936   0.7821   1.5845   2.6720   3.1050

     occupation numbers 
     1.0000   1.0000   1.0000   1.0000   1.0000   1.0000   1.0000   1.0000
     1.0000   1.0000   1.0000   1.0000   1.0000   1.0000   1.0000   1.0000
     1.0000   1.0000   1.0000   1.0000   1.0000   1.0000   1.0000   1.0000
     1.0000   1.0000   1.0428   0.0000   0.0000   0.0000   0.0000   0.0000

          k = 0.1667 0.4811 0.0000 ( 19131 PWs)   bands (ev):

  -129.0027-127.9142 -83.2081 -83.2072 -83.1029 -82.1439 -82.0845 -82.0834
   -21.7786 -19.2112 -10.4479 -10.2562 -10.1465 -10.0580  -9.8550  -9.5502
    -9.4488  -9.1267  -8.9895  -8.7498  -8.1293  -7.0580  -6.5128  -5.6464
    -4.5052  -3.7732  -3.4493  -2.6844  -0.7952   2.0041   2.7564   3.8058

     occupation numbers 
     1.0000   1.0000   1.0000   1.0000   1.0000   1.0000   1.0000   1.0000
     1.0000   1.0000   1.0000   1.0000   1.0000   1.0000   1.0000   1.0000
     1.0000   1.0000   1.0000   1.0000   1.0000   1.0000   1.0000   1.0000
     1.0000   1.0612   0.5190   0.0000   0.0000   0.0000   0.0000   0.0000

          k = 0.1667 0.5774 0.0000 ( 19115 PWs)   bands (ev):

  -129.0027-127.9142 -83.2082 -83.2073 -83.1028 -82.1439 -82.0845 -82.0834
   -21.7507 -19.1956 -10.4515 -10.2404 -10.1544 -10.0614  -9.8406  -9.5338
    -9.4091  -9.0584  -8.9356  -8.6837  -8.4355  -6.9484  -6.5587  -5.6642
    -4.5442  -3.7804  -2.6708  -2.3888  -2.1354   1.9824   3.2949   4.0502

     occupation numbers 
     1.0000   1.0000   1.0000   1.0000   1.0000   1.0000   1.0000   1.0000
     1.0000   1.0000   1.0000   1.0000   1.0000   1.0000   1.0000   1.0000
     1.0000   1.0000   1.0000   1.0000   1.0000   1.0000   1.0000   1.0000
     1.0000   1.0578   0.0000   0.0000   0.0000   0.0000   0.0000   0.0000

          k = 0.2500 0.4330 0.0000 ( 19111 PWs)   bands (ev):

  -129.0027-127.9142 -83.2080 -83.2073 -83.1029 -82.1439 -82.0843 -82.0835
   -21.7794 -19.2113 -10.3882 -10.2806 -10.1452 -10.0316  -9.8991  -9.5329
    -9.4481  -9.1819  -8.9989  -8.7452  -7.9636  -7.1336  -6.6746  -5.6329
    -4.4152  -3.8868  -3.5176  -2.6863   0.1667   1.0184   2.5879   3.7577

     occupation numbers 
     1.0000   1.0000   1.0000   1.0000   1.0000   1.0000   1.0000   1.0000
     1.0000   1.0000   1.0000   1.0000   1.0000   1.0000   1.0000   1.0000
     1.0000   1.0000   1.0000   1.0000   1.0000   1.0000   1.0000   1.0000
     1.0000   1.0166   0.7714   0.0000   0.0000   0.0000   0.0000   0.0000

          k = 0.2500 0.5292 0.0000 ( 19130 PWs)   bands (ev):

  -129.0027-127.9142 -83.2080 -83.2075 -83.1028 -82.1439 -82.0844 -82.0837
   -21.7359 -19.1867 -10.3621 -10.2529 -10.1663 -10.0206  -9.9021  -9.5196
    -9.3224  -9.1206  -8.9661  -8.6595  -8.3237  -7.1533  -6.6898  -5.6510
    -4.4012  -3.9908  -2.6210  -2.4593  -1.1234   0.4533   3.5805   4.3758

     occupation numbers 
     1.0000   1.0000   1.0000   1.0000   1.0000   1.0000   1.0000   1.0000
     1.0000   1.0000   1.0000   1.0000   1.0000   1.0000   1.0000   1.0000
     1.0000   1.0000   1.0000   1.0000   1.0000   1.0000   1.0000   1.0000
     1.0000   1.0026   0.0000   0.0000   0.0000   0.0000   0.0000   0.0000

          k = 0.3333 0.5774 0.0000 ( 19131 PWs)   bands (ev):

  -129.0027-127.9141 -83.2078 -83.2078 -83.1028 -82.1439 -82.0842 -82.0840
   -21.7203 -19.1777 -10.3101 -10.2569 -10.1889  -9.9622  -9.9607  -9.5170
    -9.2144  -9.1498  -8.9367  -8.5277  -8.5215  -7.3114  -6.6498  -5.6585
    -4.2497  -4.1950  -2.5129  -1.6692  -0.9595  -0.9419   4.1881   4.5538

     occupation numbers 
     1.0000   1.0000   1.0000   1.0000   1.0000   1.0000   1.0000   1.0000
     1.0000   1.0000   1.0000   1.0000   1.0000   1.0000   1.0000   1.0000
     1.0000   1.0000   1.0000   1.0000   1.0000   1.0000   1.0000   1.0000
     1.0000   1.0000   0.0000   0.0000   0.0000   0.0000   0.0000   0.0000

     the Fermi energy is    -3.4163 ev

!    total energy              =   -1007.18846432 Ry
     estimated scf accuracy    <       0.00000002 Ry
     smearing contrib. (-TS)   =      -0.00157160 Ry
     internal energy E=F+TS    =   -1007.18689272 Ry

     The total energy is F=E-TS. E is the sum of the following terms:
     one-electron contribution =  -15019.73101086 Ry
     hartree contribution      =    7506.28039015 Ry
     xc contribution           =     -99.38735076 Ry
     ewald contribution        =    6624.71314326 Ry
     one-center paw contrib.   =     -19.06206452 Ry
      -> PAW hartree energy AE =      49.49166266 Ry
      -> PAW hartree energy PS =     -49.26645987 Ry
      -> PAW xc energy AE      =     -32.91277350 Ry
      -> PAW xc energy PS      =      13.62550619 Ry
      -> total E_H with PAW    =    7506.50559295 Ry
      -> total E_XC with PAW   =    -118.67461807 Ry

     convergence has been achieved in  17 iterations

     negative rho (up, down):  3.678E-04 0.000E+00

     Forces acting on atoms (cartesian axes, Ry/au):

     atom    1 type  2   force =     0.00000000    0.00000000    0.05365801
     atom    2 type  2   force =     0.00000000   -0.00000000   -0.00925166
     atom    3 type  1   force =     0.00000000   -0.00000000    0.08073749
     atom    4 type  1   force =     0.00000000   -0.00000000   -0.01167648
     atom    5 type  3   force =     0.00000000    0.00000000   -0.11346736
     The non-local contrib.  to forces
     atom    1 type  2   force =     0.00000000    0.00000000   -0.10778482
     atom    2 type  2   force =     0.00000000    0.00000000   -0.35484927
     atom    3 type  1   force =     0.00000000   -0.00000000   -0.11367293
     atom    4 type  1   force =     0.00000000   -0.00000000   -0.09863795
     atom    5 type  3   force =     0.00000000    0.00000000   -0.00433408
     The ionic contribution  to forces
     atom    1 type  2   force =    -0.00000057    0.00000033  109.92587719
     atom    2 type  2   force =     0.00000005   -0.00000003 -228.89745192
     atom    3 type  1   force =    -0.00000000    0.00000000   94.90856729
     atom    4 type  1   force =     0.00000053   -0.00000030    7.37877257
     atom    5 type  3   force =    -0.00000000    0.00000000   16.68423487
     The local contribution  to forces
     atom    1 type  2   force =    -0.00001935    0.00001117 -109.76383505
     atom    2 type  2   force =     0.00001961   -0.00001132  229.24319177
     atom    3 type  1   force =    -0.00000134    0.00000077  -94.71401284
     atom    4 type  1   force =     0.00000113   -0.00000065   -7.29268232
     atom    5 type  3   force =    -0.00000004    0.00000002  -16.79345963
     The core correction contribution to forces
     atom    1 type  2   force =     0.00000000    0.00000000    0.00000000
     atom    2 type  2   force =     0.00000000    0.00000000    0.00000000
     atom    3 type  1   force =    -0.00000000    0.00000000   -0.00003848
     atom    4 type  1   force =     0.00000000   -0.00000000    0.00099239
     atom    5 type  3   force =     0.00000000    0.00000000    0.00000000
     The Hubbard contrib.    to forces
     atom    1 type  2   force =     0.00000000    0.00000000    0.00000000
     atom    2 type  2   force =     0.00000000    0.00000000    0.00000000
     atom    3 type  1   force =     0.00000000    0.00000000    0.00000000
     atom    4 type  1   force =     0.00000000    0.00000000    0.00000000
     atom    5 type  3   force =     0.00000000    0.00000000    0.00000000
     The SCF correction term to forces
     atom    1 type  2   force =     0.00000000   -0.00000000   -0.00070362
     atom    2 type  2   force =    -0.00000000    0.00000000   -0.00024655
     atom    3 type  1   force =     0.00000000   -0.00000000   -0.00020985
     atom    4 type  1   force =    -0.00000000    0.00000000   -0.00022547
     atom    5 type  3   force =     0.00000000   -0.00000000   -0.00001282

     Total force =     0.149982     Total SCF correction =     0.000807


     Computing stress (Cartesian axis) and pressure


     negative rho (up, down):  3.678E-04 0.000E+00
          total   stress  (Ry/bohr**3)                   (kbar)     P=      -10.66
  -0.00003108   0.00000000   0.00000000           -4.57        0.00        0.00
   0.00000000  -0.00003108  -0.00000000            0.00       -4.57       -0.00
   0.00000000   0.00000000  -0.00015530            0.00        0.00      -22.85

     kinetic stress (kbar)   3518.05      0.00      0.00
                                0.00   3518.05      0.00
                                0.00      0.00   3449.25

     local   stress (kbar)-652431.86     -0.00      0.00
                               -0.00-652431.86     -0.00
                                0.00     -0.00 649010.57

     nonloc. stress (kbar)    -66.73      0.00      0.00
                                0.00    -66.73     -0.00
                                0.00     -0.00    -60.86

     hartree stress (kbar) 331431.61     -0.00     -0.00
                               -0.00 331431.61     -0.00
                               -0.00     -0.00-317637.08

     exc-cor stress (kbar)  -1420.66      0.00     -0.00
                                0.00  -1420.66      0.00
                               -0.00      0.00  -1419.06

     corecor stress (kbar)    -39.10     -0.00      0.00
                               -0.00    -39.10     -0.00
                                0.00     -0.00    -38.85

     ewald   stress (kbar) 319004.12      0.00     -0.00
                                0.00 319004.12      0.00
                               -0.00      0.00-333326.82

     hubbard stress (kbar)      0.00      0.00      0.00
                                0.00      0.00      0.00
                                0.00      0.00      0.00

     DFT-D   stress (kbar)      0.00      0.00      0.00
                                0.00      0.00      0.00
                                0.00      0.00      0.00

     XDM     stress (kbar)      0.00      0.00      0.00
                                0.00      0.00      0.00
                                0.00      0.00      0.00

     dft-nl  stress (kbar)      0.00      0.00      0.00
                                0.00      0.00      0.00
                                0.00      0.00      0.00

     TS-vdW  stress (kbar)      0.00      0.00      0.00
                                0.00      0.00      0.00
                                0.00      0.00      0.00

     MDB     stress (kbar)      0.00      0.00      0.00
                                0.00      0.00      0.00
                                0.00      0.00      0.00

     3D-RISM stress (kbar)      0.00      0.00      0.00
                                0.00      0.00      0.00
                                0.00      0.00      0.00


     Writing all to output data dir ./temp_hexag/aiida.save/ :
     XML data file, charge density, pseudopotentials, collected wavefunctions

     init_run     :    267.51s CPU     16.47s WALL (       1 calls)
     electrons    :  18465.42s CPU   1006.89s WALL (       1 calls)
     forces       :     47.40s CPU      5.47s WALL (       1 calls)
     stress       :    110.57s CPU     12.43s WALL (       1 calls)

     Called by init_run:
     wfcinit      :    259.02s CPU     14.41s WALL (       1 calls)
     wfcinit:atom :      2.91s CPU      0.15s WALL (      19 calls)
     wfcinit:wfcr :    248.25s CPU     13.64s WALL (      19 calls)
     potinit      :      3.87s CPU      0.40s WALL (       1 calls)
     hinit0       :      2.21s CPU      0.35s WALL (       1 calls)

     Called by electrons:
     c_bands      :  14682.33s CPU    792.71s WALL (      17 calls)
     sum_band     :   3633.40s CPU    187.12s WALL (      17 calls)
     v_of_rho     :     31.39s CPU      4.17s WALL (      18 calls)
     v_h          :      7.59s CPU      0.64s WALL (      18 calls)
     v_xc         :     26.29s CPU      3.91s WALL (      20 calls)
     newd         :     52.08s CPU     20.19s WALL (      18 calls)
     PAW_pot      :     45.89s CPU      1.96s WALL (      18 calls)
     mix_rho      :     14.48s CPU      1.22s WALL (      17 calls)

     Called by c_bands:
     init_us_2    :    141.19s CPU     10.22s WALL (     703 calls)
     cegterg      :  14526.03s CPU    780.86s WALL (     323 calls)

     Called by sum_band:
     sum_band:wei :      0.00s CPU      0.00s WALL (      17 calls)
     sum_band:loo :   3597.27s CPU    163.14s WALL (      17 calls)
     sum_band:buf :      8.72s CPU      0.50s WALL (     323 calls)
     sum_band:ini :     67.71s CPU      3.45s WALL (     323 calls)
     sum_band:cal :    118.34s CPU     11.74s WALL (     323 calls)
     sum_band:bec :    176.50s CPU      9.19s WALL (     323 calls)
     addusdens    :     28.34s CPU     23.04s WALL (      17 calls)
                                        0.00s GPU  (      17 calls)
     addusd:skk   :      0.64s CPU      0.08s WALL (      51 calls)
                                        0.00s GPU  (      51 calls)

     Called by *egterg:
     cdiaghg      :     16.99s CPU      1.35s WALL (    1621 calls)
     cegterg:over :    124.45s CPU     29.33s WALL (    1298 calls)
     cegterg:upda :    424.51s CPU     39.05s WALL (    1298 calls)
     cegterg:last :     80.87s CPU     44.66s WALL (     609 calls)
     h_psi        :  13111.40s CPU    599.87s WALL (    1640 calls)
     s_psi        :    451.26s CPU     34.36s WALL (    1640 calls)
     g_psi        :    163.27s CPU      8.89s WALL (    1298 calls)

     Called by h_psi:
     h_psi:calbec :    378.05s CPU     29.97s WALL (    1640 calls)
     vloc_psi     :  12333.98s CPU    530.63s WALL (    1640 calls)
     add_vuspsi   :     95.57s CPU     26.05s WALL (    1640 calls)

     General routines
     calbec       :    524.87s CPU     44.97s WALL (    2058 calls)
     fft          :     21.02s CPU      3.65s WALL (     257 calls)
     ffts         :      3.00s CPU      0.19s WALL (      35 calls)
     fftw         :   5939.15s CPU    250.37s WALL (   59970 calls)
     interpolate  :      3.73s CPU      0.41s WALL (      18 calls)

     Parallel routines

     PAW routines
     PAW_pot      :     45.89s CPU      1.96s WALL (      18 calls)
     PAW_symme    :      0.45s CPU      0.00s WALL (      35 calls)

     PWSCF        :      5h15m CPU  17m24.64s WALL


   This run was terminated on:  19:42:19  14Jun2024            

=------------------------------------------------------------------------------=
   JOB DONE.
=------------------------------------------------------------------------------=
