
     Program PWSCF v.7.3.1 starts on 14Jun2024 at 20:22:19 

     This program is part of the open-source Quantum ESPRESSO suite
     for quantum simulation of materials; please cite
         "P. Giannozzi et al., J. Phys.:Condens. Matter 21 395502 (2009);
         "P. Giannozzi et al., J. Phys.:Condens. Matter 29 465901 (2017);
         "P. Giannozzi et al., J. Chem. Phys. 152 154105 (2020);
          URL http://www.quantum-espresso.org", 
     in publications or presentations arising from this work. More details at
     http://www.quantum-espresso.org/quote

     Parallel version (MPI & OpenMP), running on      24 processor cores
     Number of MPI processes:                 1
     Threads/MPI process:                    24

     MPI processes distributed on     1 nodes
     5241 MiB available memory on the printing compute node when the environment starts

     Waiting for input...
     Reading input from standard input

     Current dimensions of program PWSCF are:
     Max number of different atomic species (ntypx) = 10
     Max number of k-points (npk) =  40000
     Max angular momentum in pseudopotentials (lmaxx) =  4
     file O.pbe-n-kjpaw_psl.0.1.UPF: wavefunction(s)  2P renormalized
     Message from routine setup:
     using ibrav=0 with symmetry is DISCOURAGED, use correct ibrav instead

     Subspace diagonalization in iterative solution of the eigenvalue problem:
     a serial algorithm will be used


     G-vector sticks info
     --------------------
     sticks:   dense  smooth     PW     G-vecs:    dense   smooth      PW
     Sum        1039     511    151               432659   152803   25137

     Using Slab Decomposition



     bravais-lattice index     =            0
     lattice parameter (alat)  =       6.1177  a.u.
     unit-cell volume          =    3198.5179 (a.u.)^3
     number of atoms/cell      =            5
     number of atomic types    =            3
     number of electrons       =        53.00
     number of Kohn-Sham states=           32
     kinetic-energy cutoff     =      50.0000  Ry
     charge density cutoff     =     400.0000  Ry
     scf convergence threshold =      2.0E-08
     mixing beta               =       0.4000
     number of iterations used =            8  plain     mixing
     Exchange-correlation= PBE
                           (   1   4   3   4   0   0   0)

     celldm(1)=   6.117707  celldm(2)=   0.000000  celldm(3)=   0.000000
     celldm(4)=   0.000000  celldm(5)=   0.000000  celldm(6)=   0.000000

     crystal axes: (cart. coord. in units of alat)
               a(1) = (   1.000000   0.000000   0.000000 )  
               a(2) = (  -0.500000   0.866025   0.000000 )  
               a(3) = (   0.000000   0.000000  16.130661 )  

     reciprocal axes: (cart. coord. in units 2 pi/alat)
               b(1) = (  1.000000  0.577350 -0.000000 )  
               b(2) = (  0.000000  1.154701  0.000000 )  
               b(3) = (  0.000000 -0.000000  0.061994 )  


     PseudoPot. # 1 for O  read from file:
     ../SSSP_1.3.0_PBE_efficiency/O.pbe-n-kjpaw_psl.0.1.UPF
     MD5 check sum: 0234752ac141de4415c5fc33072bef88
     Pseudo is Projector augmented-wave + core cor, Zval =  6.0
     Generated using "atomic" code by A. Dal Corso  v.5.0.99 svn rev. 10869
     Shape of augmentation charge: BESSEL
     Using radial grid of 1095 points,  4 beta functions with: 
                l(1) =   0
                l(2) =   0
                l(3) =   1
                l(4) =   1
     Q(r) pseudized with 0 coefficients 


     PseudoPot. # 2 for Zn read from file:
     ../SSSP_1.3.0_PBE_efficiency/Zn_pbe_v1.uspp.F.UPF
     MD5 check sum: df62231357ef9e81f77b2b3087fa5675
     Pseudo is Ultrasoft, Zval = 20.0
     Generated by new atomic code, or converted to UPF format
     Using radial grid of  943 points,  6 beta functions with: 
                l(1) =   0
                l(2) =   0
                l(3) =   1
                l(4) =   1
                l(5) =   2
                l(6) =   2
     Q(r) pseudized with  8 coefficients,  rinner =    1.100   1.100   1.100
                                                       1.100   1.100

     PseudoPot. # 3 for H  read from file:
     ../SSSP_1.3.0_PBE_efficiency/H.pbe-rrkjus_psl.1.0.0.UPF
     MD5 check sum: f52b6d4d1c606e5624b1dc7b2218f220
     Pseudo is Ultrasoft, Zval =  1.0
     Generated using "atomic" code by A. Dal Corso  v.5.1
     Using radial grid of  929 points,  2 beta functions with: 
                l(1) =   0
                l(2) =   0
     Q(r) pseudized with 0 coefficients 


     atomic species   valence    mass     pseudopotential
     O                 6.00    15.99940     O ( 1.00)
     Zn               20.00    65.38000     Zn( 1.00)
     H                 1.00     1.00794     H ( 1.00)

      6 Sym. Ops. (no inversion) found


                                    s                        frac. trans.

      isym =  1     identity                                     

 cryst.   s( 1) = (     1          0          0      )
                  (     0          1          0      )
                  (     0          0          1      )

 cart.    s( 1) = (  1.0000000  0.0000000  0.0000000 )
                  (  0.0000000  1.0000000  0.0000000 )
                  (  0.0000000  0.0000000  1.0000000 )


      isym =  2     120 deg rotation - cryst. axis [0,0,1]       

 cryst.   s( 2) = (     0          1          0      )
                  (    -1         -1          0      )
                  (     0          0          1      )

 cart.    s( 2) = ( -0.5000000 -0.8660254  0.0000000 )
                  (  0.8660254 -0.5000000  0.0000000 )
                  (  0.0000000  0.0000000  1.0000000 )


      isym =  3     120 deg rotation - cryst. axis [0,0,-1]      

 cryst.   s( 3) = (    -1         -1          0      )
                  (     1          0          0      )
                  (     0          0          1      )

 cart.    s( 3) = ( -0.5000000  0.8660254  0.0000000 )
                  ( -0.8660254 -0.5000000  0.0000000 )
                  (  0.0000000  0.0000000  1.0000000 )


      isym =  4     inv. 180 deg rotation - cart. axis [1,0,0]   

 cryst.   s( 4) = (    -1          0          0      )
                  (     1          1          0      )
                  (     0          0          1      )

 cart.    s( 4) = ( -1.0000000  0.0000000  0.0000000 )
                  (  0.0000000  1.0000000  0.0000000 )
                  (  0.0000000  0.0000000  1.0000000 )


      isym =  5     inv. 180 deg rotation - cryst. axis [0,1,0]  

 cryst.   s( 5) = (     1          1          0      )
                  (     0         -1          0      )
                  (     0          0          1      )

 cart.    s( 5) = (  0.5000000  0.8660254  0.0000000 )
                  (  0.8660254 -0.5000000  0.0000000 )
                  (  0.0000000  0.0000000  1.0000000 )


      isym =  6     inv. 180 deg rotation - cryst. axis [1,1,0]  

 cryst.   s( 6) = (     0         -1          0      )
                  (    -1          0          0      )
                  (     0          0          1      )

 cart.    s( 6) = (  0.5000000 -0.8660254  0.0000000 )
                  ( -0.8660254 -0.5000000  0.0000000 )
                  (  0.0000000  0.0000000  1.0000000 )


   Cartesian axes

     site n.     atom                  positions (alat units)
         1        Zn     tau(   1) = (   0.5000000   0.2886751   0.8074875  )
         2        Zn     tau(   2) = (  -0.0000000   0.5773503   0.0009545  )
         3        O      tau(   3) = (   0.5000000   0.2886751   1.4190438  )
         4        O      tau(   4) = (  -0.0000000   0.5773503   0.6125107  )
         5        H      tau(   5) = (   0.5000000   0.2886751   1.6130661  )

   Crystallographic axes

     site n.     atom                  positions (cryst. coord.)
         1        Zn     tau(   1) = (  0.6666667  0.3333333  0.0500592  )
         2        Zn     tau(   2) = (  0.3333333  0.6666667  0.0000592  )
         3        O      tau(   3) = (  0.6666667  0.3333333  0.0879718  )
         4        O      tau(   4) = (  0.3333333  0.6666667  0.0379718  )
         5        H      tau(   5) = (  0.6666667  0.3333333  0.1000000  )

     number of k points=    19  Marzari-Vanderbilt smearing, width (Ry)=  0.0147
                       cart. coord. in units 2pi/alat
        k(    1) = (   0.0000000   0.0000000   0.0000000), wk =   0.0138889
        k(    2) = (   0.0000000   0.0962250   0.0000000), wk =   0.0833333
        k(    3) = (   0.0000000   0.1924501   0.0000000), wk =   0.0833333
        k(    4) = (   0.0000000   0.2886751   0.0000000), wk =   0.0833333
        k(    5) = (   0.0000000   0.3849002   0.0000000), wk =   0.0833333
        k(    6) = (   0.0000000   0.4811252   0.0000000), wk =   0.0833333
        k(    7) = (   0.0000000  -0.5773503   0.0000000), wk =   0.0416667
        k(    8) = (   0.0833333   0.1443376   0.0000000), wk =   0.0833333
        k(    9) = (   0.0833333   0.2405626   0.0000000), wk =   0.1666667
        k(   10) = (   0.0833333   0.3367877   0.0000000), wk =   0.1666667
        k(   11) = (   0.0833333   0.4330127   0.0000000), wk =   0.1666667
        k(   12) = (   0.0833333   0.5292377   0.0000000), wk =   0.1666667
        k(   13) = (   0.1666667   0.2886751   0.0000000), wk =   0.0833333
        k(   14) = (   0.1666667   0.3849002   0.0000000), wk =   0.1666667
        k(   15) = (   0.1666667   0.4811252   0.0000000), wk =   0.1666667
        k(   16) = (   0.1666667   0.5773503   0.0000000), wk =   0.0833333
        k(   17) = (   0.2500000   0.4330127   0.0000000), wk =   0.0833333
        k(   18) = (   0.2500000   0.5292377   0.0000000), wk =   0.1666667
        k(   19) = (   0.3333333   0.5773503   0.0000000), wk =   0.0277778

                       cryst. coord.
        k(    1) = (   0.0000000   0.0000000   0.0000000), wk =   0.0138889
        k(    2) = (   0.0000000   0.0833333   0.0000000), wk =   0.0833333
        k(    3) = (   0.0000000   0.1666667   0.0000000), wk =   0.0833333
        k(    4) = (   0.0000000   0.2500000   0.0000000), wk =   0.0833333
        k(    5) = (   0.0000000   0.3333333   0.0000000), wk =   0.0833333
        k(    6) = (   0.0000000   0.4166667   0.0000000), wk =   0.0833333
        k(    7) = (   0.0000000  -0.5000000   0.0000000), wk =   0.0416667
        k(    8) = (   0.0833333   0.0833333   0.0000000), wk =   0.0833333
        k(    9) = (   0.0833333   0.1666667   0.0000000), wk =   0.1666667
        k(   10) = (   0.0833333   0.2500000   0.0000000), wk =   0.1666667
        k(   11) = (   0.0833333   0.3333333   0.0000000), wk =   0.1666667
        k(   12) = (   0.0833333   0.4166667   0.0000000), wk =   0.1666667
        k(   13) = (   0.1666667   0.1666667   0.0000000), wk =   0.0833333
        k(   14) = (   0.1666667   0.2500000   0.0000000), wk =   0.1666667
        k(   15) = (   0.1666667   0.3333333   0.0000000), wk =   0.1666667
        k(   16) = (   0.1666667   0.4166667   0.0000000), wk =   0.0833333
        k(   17) = (   0.2500000   0.2500000   0.0000000), wk =   0.0833333
        k(   18) = (   0.2500000   0.3333333   0.0000000), wk =   0.1666667
        k(   19) = (   0.3333333   0.3333333   0.0000000), wk =   0.0277778

     Dense  grid:   432659 G-vectors     FFT dimensions: (  40,  40, 640)

     Smooth grid:   152803 G-vectors     FFT dimensions: (  27,  27, 450)

     Dynamical RAM for                 wfc:       9.32 MB

     Dynamical RAM for     wfc (w. buffer):     186.48 MB

     Dynamical RAM for           str. fact:      19.81 MB

     Dynamical RAM for           local pot:       0.00 MB

     Dynamical RAM for          nlocal pot:      15.73 MB

     Dynamical RAM for                qrad:       4.82 MB

     Dynamical RAM for          rho,v,vnew:      43.24 MB

     Dynamical RAM for               rhoin:      14.41 MB

     Dynamical RAM for            rho*nmix:     105.63 MB

     Dynamical RAM for           G-vectors:      25.92 MB

     Dynamical RAM for          h,s,v(r/c):       0.19 MB

     Dynamical RAM for          <psi|beta>:       0.03 MB

     Dynamical RAM for                 psi:      18.65 MB

     Dynamical RAM for                hpsi:      18.65 MB

     Dynamical RAM for                spsi:      18.65 MB

     Dynamical RAM for      wfcinit/wfcrot:      20.43 MB

     Dynamical RAM for           addusdens:    1241.15 MB

     Dynamical RAM for          addusforce:    1257.66 MB

     Dynamical RAM for         addusstress:    1326.97 MB

     Estimated static dynamical RAM per process >     375.89 MB

     Estimated max dynamical RAM per process >       1.77 GB

     Initial potential from superposition of free atoms

     starting charge      52.9997, renormalised to      53.0000

     negative rho (up, down):  3.529E-04 0.000E+00
     Starting wfcs are   35 randomized atomic wfcs
     Checking if some PAW data can be deallocated... 

     total cpu time spent up to now is       14.5 secs

     Self-consistent Calculation

     iteration #  1     ecut=    50.00 Ry     beta= 0.40
     Davidson diagonalization with overlap

---- Real-time Memory Report at c_bands before calling an iterative solver
          1410 MiB given to the printing process from OS
             0 MiB allocation reported by mallinfo(arena+hblkhd)
          4859 MiB available memory on the node where the printing process lives
------------------
     ethr =  1.00E-02,  avg # of iterations =  5.3

     negative rho (up, down):  2.291E-04 0.000E+00

     total cpu time spent up to now is       48.1 secs

     total energy              =   -1006.12345708 Ry
     estimated scf accuracy    <       2.52177452 Ry

     iteration #  2     ecut=    50.00 Ry     beta= 0.40
     Davidson diagonalization with overlap

---- Real-time Memory Report at c_bands before calling an iterative solver
          1682 MiB given to the printing process from OS
             0 MiB allocation reported by mallinfo(arena+hblkhd)
          5013 MiB available memory on the node where the printing process lives
------------------
     ethr =  4.76E-03,  avg # of iterations =  7.8

     negative rho (up, down):  4.716E-04 0.000E+00

     total cpu time spent up to now is       90.0 secs

     total energy              =   -1001.21950501 Ry
     estimated scf accuracy    <     110.44278289 Ry

     iteration #  3     ecut=    50.00 Ry     beta= 0.40
     Davidson diagonalization with overlap

---- Real-time Memory Report at c_bands before calling an iterative solver
          1687 MiB given to the printing process from OS
             0 MiB allocation reported by mallinfo(arena+hblkhd)
          5006 MiB available memory on the node where the printing process lives
------------------
     ethr =  4.76E-03,  avg # of iterations =  6.8

     negative rho (up, down):  2.813E-04 0.000E+00

     total cpu time spent up to now is      134.8 secs

     total energy              =   -1007.07341348 Ry
     estimated scf accuracy    <       1.26691329 Ry

     iteration #  4     ecut=    50.00 Ry     beta= 0.40
     Davidson diagonalization with overlap

---- Real-time Memory Report at c_bands before calling an iterative solver
          1692 MiB given to the printing process from OS
             0 MiB allocation reported by mallinfo(arena+hblkhd)
          4995 MiB available memory on the node where the printing process lives
------------------
     ethr =  2.39E-03,  avg # of iterations =  1.2

     negative rho (up, down):  2.334E-04 0.000E+00

     total cpu time spent up to now is      160.7 secs

     total energy              =   -1007.01609792 Ry
     estimated scf accuracy    <       0.87691231 Ry

     iteration #  5     ecut=    50.00 Ry     beta= 0.40
     Davidson diagonalization with overlap

---- Real-time Memory Report at c_bands before calling an iterative solver
          1697 MiB given to the printing process from OS
             0 MiB allocation reported by mallinfo(arena+hblkhd)
          4995 MiB available memory on the node where the printing process lives
------------------
     ethr =  1.65E-03,  avg # of iterations =  1.4

     negative rho (up, down):  2.347E-04 0.000E+00

     total cpu time spent up to now is      186.5 secs

     total energy              =   -1006.99766359 Ry
     estimated scf accuracy    <       0.37841215 Ry

     iteration #  6     ecut=    50.00 Ry     beta= 0.40
     Davidson diagonalization with overlap

---- Real-time Memory Report at c_bands before calling an iterative solver
          1702 MiB given to the printing process from OS
             0 MiB allocation reported by mallinfo(arena+hblkhd)
          4988 MiB available memory on the node where the printing process lives
------------------
     ethr =  7.14E-04,  avg # of iterations =  3.4

     negative rho (up, down):  2.432E-04 0.000E+00

     total cpu time spent up to now is      215.0 secs

     total energy              =   -1007.00985128 Ry
     estimated scf accuracy    <       0.05415793 Ry

     iteration #  7     ecut=    50.00 Ry     beta= 0.40
     Davidson diagonalization with overlap

---- Real-time Memory Report at c_bands before calling an iterative solver
          1706 MiB given to the printing process from OS
             0 MiB allocation reported by mallinfo(arena+hblkhd)
          4985 MiB available memory on the node where the printing process lives
------------------
     ethr =  1.02E-04,  avg # of iterations =  4.8

     negative rho (up, down):  2.623E-04 0.000E+00

     total cpu time spent up to now is      245.7 secs

     total energy              =   -1006.99432480 Ry
     estimated scf accuracy    <       0.26557920 Ry

     iteration #  8     ecut=    50.00 Ry     beta= 0.40
     Davidson diagonalization with overlap

---- Real-time Memory Report at c_bands before calling an iterative solver
          1711 MiB given to the printing process from OS
             0 MiB allocation reported by mallinfo(arena+hblkhd)
          4976 MiB available memory on the node where the printing process lives
------------------
     ethr =  1.02E-04,  avg # of iterations =  3.8

     negative rho (up, down):  2.787E-04 0.000E+00

     total cpu time spent up to now is      276.8 secs

     total energy              =   -1006.98619734 Ry
     estimated scf accuracy    <       0.13817830 Ry

     iteration #  9     ecut=    50.00 Ry     beta= 0.40
     Davidson diagonalization with overlap

---- Real-time Memory Report at c_bands before calling an iterative solver
          1716 MiB given to the printing process from OS
             0 MiB allocation reported by mallinfo(arena+hblkhd)
          4973 MiB available memory on the node where the printing process lives
------------------
     ethr =  1.02E-04,  avg # of iterations =  5.3

     negative rho (up, down):  3.022E-04 0.000E+00

     total cpu time spent up to now is      318.4 secs

     total energy              =   -1006.97785619 Ry
     estimated scf accuracy    <       0.13432772 Ry

     iteration # 10     ecut=    50.00 Ry     beta= 0.40
     Davidson diagonalization with overlap

---- Real-time Memory Report at c_bands before calling an iterative solver
          1720 MiB given to the printing process from OS
             0 MiB allocation reported by mallinfo(arena+hblkhd)
          4842 MiB available memory on the node where the printing process lives
------------------
     ethr =  1.02E-04,  avg # of iterations =  9.2

     negative rho (up, down):  2.942E-04 0.000E+00

     total cpu time spent up to now is      350.9 secs

     total energy              =   -1006.98114557 Ry
     estimated scf accuracy    <       0.00062820 Ry

     iteration # 11     ecut=    50.00 Ry     beta= 0.40
     Davidson diagonalization with overlap

---- Real-time Memory Report at c_bands before calling an iterative solver
          1723 MiB given to the printing process from OS
             0 MiB allocation reported by mallinfo(arena+hblkhd)
          4845 MiB available memory on the node where the printing process lives
------------------
     ethr =  1.19E-06,  avg # of iterations = 12.3

     negative rho (up, down):  3.304E-04 0.000E+00

     total cpu time spent up to now is      389.5 secs

     total energy              =   -1006.98088061 Ry
     estimated scf accuracy    <       0.01810449 Ry

     iteration # 12     ecut=    50.00 Ry     beta= 0.40
     Davidson diagonalization with overlap

---- Real-time Memory Report at c_bands before calling an iterative solver
          1723 MiB given to the printing process from OS
             0 MiB allocation reported by mallinfo(arena+hblkhd)
          4838 MiB available memory on the node where the printing process lives
------------------
     c_bands:  1 eigenvalues not converged
     ethr =  1.19E-06,  avg # of iterations = 12.2

     negative rho (up, down):  3.718E-04 0.000E+00

     total cpu time spent up to now is      427.3 secs

     total energy              =   -1006.98121744 Ry
     estimated scf accuracy    <       0.00005239 Ry

     iteration # 13     ecut=    50.00 Ry     beta= 0.40
     Davidson diagonalization with overlap

---- Real-time Memory Report at c_bands before calling an iterative solver
          1723 MiB given to the printing process from OS
             0 MiB allocation reported by mallinfo(arena+hblkhd)
          4987 MiB available memory on the node where the printing process lives
------------------
     ethr =  9.88E-08,  avg # of iterations =  3.5

     negative rho (up, down):  4.050E-04 0.000E+00

     total cpu time spent up to now is      455.9 secs

     total energy              =   -1006.98121693 Ry
     estimated scf accuracy    <       0.00022675 Ry

     iteration # 14     ecut=    50.00 Ry     beta= 0.40
     Davidson diagonalization with overlap

---- Real-time Memory Report at c_bands before calling an iterative solver
          1729 MiB given to the printing process from OS
             0 MiB allocation reported by mallinfo(arena+hblkhd)
          4981 MiB available memory on the node where the printing process lives
------------------
     ethr =  9.88E-08,  avg # of iterations =  1.0

     negative rho (up, down):  4.020E-04 0.000E+00

     total cpu time spent up to now is      481.2 secs

     total energy              =   -1006.98122358 Ry
     estimated scf accuracy    <       0.00001239 Ry

     iteration # 15     ecut=    50.00 Ry     beta= 0.40
     Davidson diagonalization with overlap

---- Real-time Memory Report at c_bands before calling an iterative solver
          1729 MiB given to the printing process from OS
             0 MiB allocation reported by mallinfo(arena+hblkhd)
          4981 MiB available memory on the node where the printing process lives
------------------
     ethr =  2.34E-08,  avg # of iterations =  1.0

     negative rho (up, down):  3.998E-04 0.000E+00

     total cpu time spent up to now is      506.1 secs

     total energy              =   -1006.98122370 Ry
     estimated scf accuracy    <       0.00000082 Ry

     iteration # 16     ecut=    50.00 Ry     beta= 0.40
     Davidson diagonalization with overlap

---- Real-time Memory Report at c_bands before calling an iterative solver
          1729 MiB given to the printing process from OS
             0 MiB allocation reported by mallinfo(arena+hblkhd)
          4983 MiB available memory on the node where the printing process lives
------------------
     ethr =  1.56E-09,  avg # of iterations =  1.0

     negative rho (up, down):  4.044E-04 0.000E+00

     total cpu time spent up to now is      532.4 secs

     End of self-consistent calculation

          k = 0.0000 0.0000 0.0000 ( 18895 PWs)   bands (ev):

  -129.4445-127.8552 -83.6513 -83.6513 -83.5382 -82.0541 -82.0541 -82.0431
   -24.3344 -22.4331 -11.0091 -10.8101 -10.4703 -10.4703 -10.4344 -10.4344
   -10.2833  -9.9024  -9.9024  -8.8484  -8.8484  -7.8297  -5.6616  -5.0531
    -5.0531  -3.7867  -3.7867  -2.0986   0.2938   0.9198   1.1680   1.3289

     occupation numbers 
     1.0000   1.0000   1.0000   1.0000   1.0000   1.0000   1.0000   1.0000
     1.0000   1.0000   1.0000   1.0000   1.0000   1.0000   1.0000   1.0000
     1.0000   1.0000   1.0000   1.0000   1.0000   1.0000   1.0000   1.0000
     1.0000   0.1549   0.1549   0.0000   0.0000   0.0000   0.0000   0.0000

          k = 0.0000 0.0962 0.0000 ( 18926 PWs)   bands (ev):

  -129.4444-127.8552 -83.6515 -83.6514 -83.5382 -82.0543 -82.0541 -82.0431
   -24.3253 -22.4043 -10.9983 -10.7984 -10.4804 -10.4626 -10.4566 -10.4280
   -10.1893  -9.9091  -9.8818  -8.8499  -8.8497  -7.7728  -5.6782  -5.2686
    -5.1256  -3.9105  -3.8036  -1.8114   0.4301   1.0511   1.2993   1.4688

     occupation numbers 
     1.0000   1.0000   1.0000   1.0000   1.0000   1.0000   1.0000   1.0000
     1.0000   1.0000   1.0000   1.0000   1.0000   1.0000   1.0000   1.0000
     1.0000   1.0000   1.0000   1.0000   1.0000   1.0000   1.0000   1.0000
     1.0000   0.5208   0.1901   0.0000   0.0000   0.0000   0.0000   0.0000

          k = 0.0000 0.1925 0.0000 ( 19042 PWs)   bands (ev):

  -129.4444-127.8552 -83.6518 -83.6515 -83.5382 -82.0547 -82.0543 -82.0431
   -24.3003 -22.3248 -10.9724 -10.7680 -10.5253 -10.5042 -10.4304 -10.4017
    -9.9875  -9.8684  -9.8215  -8.8512  -8.8426  -7.6229  -6.0051  -5.4468
    -5.3247  -4.2031  -3.8496  -1.1499   0.8246   1.4418   1.6898   1.8713

     occupation numbers 
     1.0000   1.0000   1.0000   1.0000   1.0000   1.0000   1.0000   1.0000
     1.0000   1.0000   1.0000   1.0000   1.0000   1.0000   1.0000   1.0000
     1.0000   1.0000   1.0000   1.0000   1.0000   1.0000   1.0000   1.0000
     1.0000   1.0743   0.3119   0.0000   0.0000   0.0000   0.0000   0.0000

          k = 0.0000 0.2887 0.0000 ( 19096 PWs)   bands (ev):

  -129.4444-127.8552 -83.6523 -83.6516 -83.5381 -82.0553 -82.0545 -82.0430
   -24.2660 -22.2136 -10.9498 -10.7314 -10.5807 -10.5390 -10.4189 -10.3456
    -9.9516  -9.7308  -9.5535  -8.8443  -8.7899  -7.4700  -6.5873  -5.6013
    -5.3330  -4.5378  -3.9123  -0.3356   1.3537   2.0173   2.2437   2.4345

     occupation numbers 
     1.0000   1.0000   1.0000   1.0000   1.0000   1.0000   1.0000   1.0000
     1.0000   1.0000   1.0000   1.0000   1.0000   1.0000   1.0000   1.0000
     1.0000   1.0000   1.0000   1.0000   1.0000   1.0000   1.0000   1.0000
     1.0000   1.0004   0.5274   0.0000   0.0000   0.0000   0.0000   0.0000

          k = 0.0000 0.3849 0.0000 ( 19138 PWs)   bands (ev):

  -129.4444-127.8552 -83.6528 -83.6518 -83.5381 -82.0559 -82.0546 -82.0430
   -24.2315 -22.0995 -10.9484 -10.6998 -10.6160 -10.5592 -10.4155 -10.2844
    -9.9149  -9.6346  -9.2495  -8.8211  -8.6363  -7.6274  -6.8503  -5.8882
    -5.1211  -4.7182  -3.9745   0.0785   0.6798   2.3398   3.0138   3.2625

     occupation numbers 
     1.0000   1.0000   1.0000   1.0000   1.0000   1.0000   1.0000   1.0000
     1.0000   1.0000   1.0000   1.0000   1.0000   1.0000   1.0000   1.0000
     1.0000   1.0000   1.0000   1.0000   1.0000   1.0000   1.0000   1.0000
     1.0000   1.0000   0.7580   0.0000   0.0000   0.0000   0.0000   0.0000

          k = 0.0000 0.4811 0.0000 ( 19132 PWs)   bands (ev):

  -129.4444-127.8551 -83.6531 -83.6519 -83.5380 -82.0563 -82.0547 -82.0429
   -24.2060 -22.0140 -10.9604 -10.6757 -10.6412 -10.5579 -10.4157 -10.2380
    -9.8573  -9.5643  -9.0294  -8.7871  -8.5362  -7.9546  -6.8175  -6.1093
    -5.1585  -4.1954  -4.0196  -1.6160   1.4898   3.1221   3.8605   4.2156

     occupation numbers 
     1.0000   1.0000   1.0000   1.0000   1.0000   1.0000   1.0000   1.0000
     1.0000   1.0000   1.0000   1.0000   1.0000   1.0000   1.0000   1.0000
     1.0000   1.0000   1.0000   1.0000   1.0000   1.0000   1.0000   1.0000
     1.0000   1.0769   0.9020   0.0000   0.0000   0.0000   0.0000   0.0000

          k = 0.0000-0.5774 0.0000 ( 19154 PWs)   bands (ev):

  -129.4444-127.8551 -83.6532 -83.6519 -83.5380 -82.0564 -82.0548 -82.0429
   -24.1967 -21.9822 -10.9666 -10.6659 -10.6516 -10.5547 -10.4161 -10.2208
    -9.8270  -9.5393  -8.7851  -8.7694  -8.7602  -7.9920  -6.8031  -6.1936
    -5.2103  -4.0360  -3.1388  -3.0662   1.9514   3.5978   3.8525   4.5634

     occupation numbers 
     1.0000   1.0000   1.0000   1.0000   1.0000   1.0000   1.0000   1.0000
     1.0000   1.0000   1.0000   1.0000   1.0000   1.0000   1.0000   1.0000
     1.0000   1.0000   1.0000   1.0000   1.0000   1.0000   1.0000   1.0000
     1.0000   0.9452   0.0000   0.0000   0.0000   0.0000   0.0000   0.0000

          k = 0.0833 0.1443 0.0000 ( 18949 PWs)   bands (ev):

  -129.4444-127.8552 -83.6517 -83.6514 -83.5382 -82.0546 -82.0542 -82.0431
   -24.3082 -22.3502 -10.9795 -10.7772 -10.5087 -10.4884 -10.4341 -10.4223
   -10.0291  -9.9128  -9.8333  -8.8527  -8.8450  -7.6689  -5.8504  -5.4569
    -5.2664  -4.1065  -3.8432  -1.3450   0.6969   1.3124   1.5605   1.7396

     occupation numbers 
     1.0000   1.0000   1.0000   1.0000   1.0000   1.0000   1.0000   1.0000
     1.0000   1.0000   1.0000   1.0000   1.0000   1.0000   1.0000   1.0000
     1.0000   1.0000   1.0000   1.0000   1.0000   1.0000   1.0000   1.0000
     1.0000   1.0619   0.2928   0.0000   0.0000   0.0000   0.0000   0.0000

          k = 0.0833 0.2406 0.0000 ( 19034 PWs)   bands (ev):

  -129.4444-127.8552 -83.6521 -83.6516 -83.5381 -82.0551 -82.0544 -82.0430
   -24.2786 -22.2547 -10.9524 -10.7429 -10.5614 -10.5145 -10.4215 -10.3863
    -9.9425  -9.8042  -9.6557  -8.8521  -8.8106  -7.5078  -6.3505  -5.6168
    -5.3368  -4.3992  -3.9137  -0.6184   1.1928   1.8239   2.0706   2.2553

     occupation numbers 
     1.0000   1.0000   1.0000   1.0000   1.0000   1.0000   1.0000   1.0000
     1.0000   1.0000   1.0000   1.0000   1.0000   1.0000   1.0000   1.0000
     1.0000   1.0000   1.0000   1.0000   1.0000   1.0000   1.0000   1.0000
     1.0000   1.0071   0.5327   0.0000   0.0000   0.0000   0.0000   0.0000

          k = 0.0833 0.3368 0.0000 ( 19101 PWs)   bands (ev):

  -129.4444-127.8552 -83.6525 -83.6517 -83.5381 -82.0556 -82.0546 -82.0430
   -24.2441 -22.1419 -10.9353 -10.7088 -10.5982 -10.5438 -10.4204 -10.3284
    -9.9165  -9.6929  -9.3631  -8.8357  -8.6897  -7.4735  -6.7914  -5.9145
    -5.1555  -4.6711  -3.9921   0.2042   1.1896   2.1040   2.6401   2.8854

     occupation numbers 
     1.0000   1.0000   1.0000   1.0000   1.0000   1.0000   1.0000   1.0000
     1.0000   1.0000   1.0000   1.0000   1.0000   1.0000   1.0000   1.0000
     1.0000   1.0000   1.0000   1.0000   1.0000   1.0000   1.0000   1.0000
     1.0000   1.0000   0.8182   0.0000   0.0000   0.0000   0.0000   0.0000

          k = 0.0833 0.4330 0.0000 ( 19155 PWs)   bands (ev):

  -129.4444-127.8552 -83.6529 -83.6519 -83.5381 -82.0561 -82.0547 -82.0430
   -24.2141 -22.0418 -10.9359 -10.6817 -10.6197 -10.5550 -10.4228 -10.2752
    -9.8599  -9.5986  -9.1559  -8.7997  -8.5036  -7.7970  -6.8471  -6.1807
    -5.0604  -4.5007  -4.0559  -0.6747   1.2218   2.8059   3.5586   3.7391

     occupation numbers 
     1.0000   1.0000   1.0000   1.0000   1.0000   1.0000   1.0000   1.0000
     1.0000   1.0000   1.0000   1.0000   1.0000   1.0000   1.0000   1.0000
     1.0000   1.0000   1.0000   1.0000   1.0000   1.0000   1.0000   1.0000
     1.0000   1.0009   0.9897   0.0000   0.0000   0.0000   0.0000   0.0000

          k = 0.0833 0.5292 0.0000 ( 19135 PWs)   bands (ev):

  -129.4444-127.8551 -83.6531 -83.6519 -83.5380 -82.0563 -82.0548 -82.0429
   -24.1967 -21.9829 -10.9414 -10.6646 -10.6353 -10.5518 -10.4253 -10.2433
    -9.8069  -9.5416  -8.9659  -8.7634  -8.5879  -7.9505  -6.8199  -6.3414
    -5.1521  -4.1056  -3.6145  -2.3040   1.9683   3.4993   3.6805   3.9617

     occupation numbers 
     1.0000   1.0000   1.0000   1.0000   1.0000   1.0000   1.0000   1.0000
     1.0000   1.0000   1.0000   1.0000   1.0000   1.0000   1.0000   1.0000
     1.0000   1.0000   1.0000   1.0000   1.0000   1.0000   1.0000   1.0000
     1.0000   1.0611   0.0089   0.0000   0.0000   0.0000   0.0000   0.0000

          k = 0.1667 0.2887 0.0000 ( 19063 PWs)   bands (ev):

  -129.4444-127.8552 -83.6524 -83.6517 -83.5381 -82.0555 -82.0546 -82.0430
   -24.2488 -22.1574 -10.9257 -10.7101 -10.5922 -10.5206 -10.4224 -10.3659
    -9.8995  -9.7388  -9.4051  -8.8417  -8.6982  -7.4239  -6.7092  -6.0182
    -5.1563  -4.6080  -4.0282   0.1260   1.6412   2.2705   2.5678   2.7950

     occupation numbers 
     1.0000   1.0000   1.0000   1.0000   1.0000   1.0000   1.0000   1.0000
     1.0000   1.0000   1.0000   1.0000   1.0000   1.0000   1.0000   1.0000
     1.0000   1.0000   1.0000   1.0000   1.0000   1.0000   1.0000   1.0000
     1.0000   1.0001   0.9256   0.0000   0.0000   0.0000   0.0000   0.0000

          k = 0.1667 0.3849 0.0000 ( 19126 PWs)   bands (ev):

  -129.4444-127.8552 -83.6528 -83.6519 -83.5381 -82.0559 -82.0548 -82.0430
   -24.2188 -22.0582 -10.9021 -10.6809 -10.6045 -10.5303 -10.4326 -10.3313
    -9.8287  -9.6490  -9.2490  -8.8046  -8.4880  -7.5895  -6.8897  -6.3813
    -4.9384  -4.6187  -4.1419   0.3550   1.2186   2.2682   2.7254   3.4114

     occupation numbers 
     1.0000   1.0000   1.0000   1.0000   1.0000   1.0000   1.0000   1.0000
     1.0000   1.0000   1.0000   1.0000   1.0000   1.0000   1.0000   1.0000
     1.0000   1.0000   1.0000   1.0000   1.0000   1.0000   1.0000   1.0000
     1.0000   1.0000   1.0812   0.0000   0.0000   0.0000   0.0000   0.0000

          k = 0.1667 0.4811 0.0000 ( 19131 PWs)   bands (ev):

  -129.4444-127.8551 -83.6530 -83.6521 -83.5380 -82.0561 -82.0550 -82.0429
   -24.1968 -21.9843 -10.8873 -10.6608 -10.6091 -10.5334 -10.4435 -10.2995
    -9.7575  -9.5431  -9.1404  -8.7553  -8.4422  -7.8107  -6.9281  -6.6026
    -5.0164  -4.2778  -3.8680  -1.2452   1.6193   2.3980   3.4513   4.3028

     occupation numbers 
     1.0000   1.0000   1.0000   1.0000   1.0000   1.0000   1.0000   1.0000
     1.0000   1.0000   1.0000   1.0000   1.0000   1.0000   1.0000   1.0000
     1.0000   1.0000   1.0000   1.0000   1.0000   1.0000   1.0000   1.0000
     1.0000   1.0409   0.3702   0.0000   0.0000   0.0000   0.0000   0.0000

          k = 0.1667 0.5774 0.0000 ( 19115 PWs)   bands (ev):

  -129.4444-127.8551 -83.6530 -83.6521 -83.5380 -82.0562 -82.0551 -82.0429
   -24.1887 -21.9570 -10.8823 -10.6530 -10.6124 -10.5319 -10.4481 -10.2867
    -9.7310  -9.4921  -9.0217  -8.7409  -8.5991  -7.8230  -6.9148  -6.6983
    -5.0595  -4.2947  -2.8213  -2.6450   1.5786   2.9860   3.8094   4.1790

     occupation numbers 
     1.0000   1.0000   1.0000   1.0000   1.0000   1.0000   1.0000   1.0000
     1.0000   1.0000   1.0000   1.0000   1.0000   1.0000   1.0000   1.0000
     1.0000   1.0000   1.0000   1.0000   1.0000   1.0000   1.0000   1.0000
     1.0000   1.0338   0.0000   0.0000   0.0000   0.0000   0.0000   0.0000

          k = 0.2500 0.4330 0.0000 ( 19111 PWs)   bands (ev):

  -129.4444-127.8551 -83.6528 -83.6522 -83.5380 -82.0560 -82.0551 -82.0429
   -24.1968 -21.9850 -10.8577 -10.6573 -10.6052 -10.5108 -10.4478 -10.3405
    -9.7259  -9.5398  -9.2229  -8.7518  -8.3890  -7.6670  -7.1033  -6.6765
    -4.9233  -4.3915  -3.9409  -0.2811   0.6009   2.2458   3.4065   4.4292

     occupation numbers 
     1.0000   1.0000   1.0000   1.0000   1.0000   1.0000   1.0000   1.0000
     1.0000   1.0000   1.0000   1.0000   1.0000   1.0000   1.0000   1.0000
     1.0000   1.0000   1.0000   1.0000   1.0000   1.0000   1.0000   1.0000
     1.0000   1.0081   0.6351   0.0000   0.0000   0.0000   0.0000   0.0000

          k = 0.2500 0.5292 0.0000 ( 19130 PWs)   bands (ev):

  -129.4444-127.8551 -83.6529 -83.6524 -83.5380 -82.0560 -82.0554 -82.0429
   -24.1841 -21.9424 -10.8245 -10.6437 -10.6077 -10.4998 -10.4541 -10.3473
    -9.6875  -9.3674  -9.1582  -8.7674  -8.5285  -7.6494  -7.2480  -6.7979
    -4.9183  -4.5071  -2.9502  -1.5704   0.0262   3.2682   4.0997   4.3715

     occupation numbers 
     1.0000   1.0000   1.0000   1.0000   1.0000   1.0000   1.0000   1.0000
     1.0000   1.0000   1.0000   1.0000   1.0000   1.0000   1.0000   1.0000
     1.0000   1.0000   1.0000   1.0000   1.0000   1.0000   1.0000   1.0000
     1.0000   1.0007   0.0000   0.0000   0.0000   0.0000   0.0000   0.0000

          k = 0.3333 0.5774 0.0000 ( 19131 PWs)   bands (ev):

  -129.4444-127.8551 -83.6527 -83.6527 -83.5380 -82.0559 -82.0556 -82.0429
   -24.1795 -21.9271 -10.7931 -10.6339 -10.6159 -10.4963 -10.4076 -10.4069
    -9.6730  -9.2113  -9.0927  -8.9491  -8.5369  -7.5502  -7.4271  -6.8553
    -4.7725  -4.7087  -2.1108  -1.4027  -1.3700   3.8724   4.4178   4.7278

     occupation numbers 
     1.0000   1.0000   1.0000   1.0000   1.0000   1.0000   1.0000   1.0000
     1.0000   1.0000   1.0000   1.0000   1.0000   1.0000   1.0000   1.0000
     1.0000   1.0000   1.0000   1.0000   1.0000   1.0000   1.0000   1.0000
     1.0000   1.0000   0.0000   0.0000   0.0000   0.0000   0.0000   0.0000

     the Fermi energy is    -3.8770 ev

!    total energy              =   -1006.98122370 Ry
     estimated scf accuracy    <       0.00000002 Ry
     smearing contrib. (-TS)   =      -0.00025500 Ry
     internal energy E=F+TS    =   -1006.98096870 Ry

     The total energy is F=E-TS. E is the sum of the following terms:
     one-electron contribution =  -15108.71554783 Ry
     hartree contribution      =    7550.26866538 Ry
     xc contribution           =    -100.29538763 Ry
     ewald contribution        =    6670.77390538 Ry
     one-center paw contrib.   =     -19.01260401 Ry
      -> PAW hartree energy AE =      57.84200061 Ry
      -> PAW hartree energy PS =     -57.55340552 Ry
      -> PAW xc energy AE      =     -34.24046637 Ry
      -> PAW xc energy PS      =      14.93926728 Ry
      -> total E_H with PAW    =    7550.55726046 Ry
      -> total E_XC with PAW   =    -119.59658672 Ry

     convergence has been achieved in  16 iterations

     negative rho (up, down):  4.044E-04 0.000E+00

     Forces acting on atoms (cartesian axes, Ry/au):

     atom    1 type  2   force =     0.00000000    0.00000000    0.07753842
     atom    2 type  2   force =     0.00000000   -0.00000000   -0.00019278
     atom    3 type  1   force =     0.00000000   -0.00000000   -2.67395907
     atom    4 type  1   force =     0.00000000    0.00000000   -0.02261132
     atom    5 type  3   force =     0.00000000    0.00000000    2.61922474
     The non-local contrib.  to forces
     atom    1 type  2   force =     0.00000000    0.00000000   -0.17478298
     atom    2 type  2   force =     0.00000000    0.00000000   -0.43946193
     atom    3 type  1   force =     0.00000000    0.00000000    0.55813369
     atom    4 type  1   force =     0.00000000    0.00000000   -0.10450623
     atom    5 type  3   force =     0.00000000   -0.00000000   -0.37688814
     The ionic contribution  to forces
     atom    1 type  2   force =    -0.00000057    0.00000033  109.40842394
     atom    2 type  2   force =     0.00000005   -0.00000003 -229.28497417
     atom    3 type  1   force =    -0.00000000    0.00000000   88.13112411
     atom    4 type  1   force =     0.00000053   -0.00000030    7.26706366
     atom    5 type  3   force =    -0.00000000    0.00000000   24.47836246
     The local contribution  to forces
     atom    1 type  2   force =    -0.00001937    0.00001118 -109.15527841
     atom    2 type  2   force =     0.00001961   -0.00001132  229.72487471
     atom    3 type  1   force =    -0.00000156    0.00000090  -91.37551476
     atom    4 type  1   force =     0.00000113   -0.00000065   -7.18611135
     atom    5 type  3   force =    -0.00000023    0.00000014  -21.48245442
     The core correction contribution to forces
     atom    1 type  2   force =     0.00000000    0.00000000    0.00000000
     atom    2 type  2   force =     0.00000000    0.00000000    0.00000000
     atom    3 type  1   force =    -0.00000000    0.00000000    0.01217053
     atom    4 type  1   force =     0.00000000   -0.00000000    0.00100720
     atom    5 type  3   force =     0.00000000    0.00000000    0.00000000
     The Hubbard contrib.    to forces
     atom    1 type  2   force =     0.00000000    0.00000000    0.00000000
     atom    2 type  2   force =     0.00000000    0.00000000    0.00000000
     atom    3 type  1   force =     0.00000000    0.00000000    0.00000000
     atom    4 type  1   force =     0.00000000    0.00000000    0.00000000
     atom    5 type  3   force =     0.00000000    0.00000000    0.00000000
     The SCF correction term to forces
     atom    1 type  2   force =     0.00000000   -0.00000000   -0.00102077
     atom    2 type  2   force =    -0.00000000    0.00000000   -0.00082803
     atom    3 type  1   force =     0.00000000   -0.00000000   -0.00006927
     atom    4 type  1   force =    -0.00000000    0.00000000   -0.00026124
     atom    5 type  3   force =     0.00000000   -0.00000000    0.00000821

     Total force =     3.743918     Total SCF correction =     0.001342


     Computing stress (Cartesian axis) and pressure


     negative rho (up, down):  4.044E-04 0.000E+00
          total   stress  (Ry/bohr**3)                   (kbar)     P=       43.36
  -0.00001389   0.00000000   0.00000000           -2.04        0.00        0.00
   0.00000000  -0.00001389  -0.00000000            0.00       -2.04       -0.00
   0.00000000  -0.00000000   0.00091204            0.00       -0.00      134.17

     kinetic stress (kbar)   3593.32      0.00      0.00
                                0.00   3593.32      0.00
                                0.00      0.00   3518.41

     local   stress (kbar)-656204.27     -0.00      0.00
                               -0.00-656204.27     -0.00
                                0.00     -0.00 652409.64

     nonloc. stress (kbar)    -72.69      0.00      0.00
                                0.00    -72.69      0.00
                                0.00      0.00    -61.77

     hartree stress (kbar) 333312.25     -0.00      0.00
                               -0.00 333312.25     -0.00
                                0.00     -0.00-319375.27

     exc-cor stress (kbar)  -1433.91      0.00      0.00
                                0.00  -1433.91     -0.00
                                0.00     -0.00  -1431.86

     corecor stress (kbar)    -39.36     -0.00      0.00
                               -0.00    -39.36     -0.00
                                0.00     -0.00    -39.57

     ewald   stress (kbar) 320842.62      0.00     -0.00
                                0.00 320842.62      0.00
                               -0.00      0.00-334885.41

     hubbard stress (kbar)      0.00      0.00      0.00
                                0.00      0.00      0.00
                                0.00      0.00      0.00

     DFT-D   stress (kbar)      0.00      0.00      0.00
                                0.00      0.00      0.00
                                0.00      0.00      0.00

     XDM     stress (kbar)      0.00      0.00      0.00
                                0.00      0.00      0.00
                                0.00      0.00      0.00

     dft-nl  stress (kbar)      0.00      0.00      0.00
                                0.00      0.00      0.00
                                0.00      0.00      0.00

     TS-vdW  stress (kbar)      0.00      0.00      0.00
                                0.00      0.00      0.00
                                0.00      0.00      0.00

     MDB     stress (kbar)      0.00      0.00      0.00
                                0.00      0.00      0.00
                                0.00      0.00      0.00

     3D-RISM stress (kbar)      0.00      0.00      0.00
                                0.00      0.00      0.00
                                0.00      0.00      0.00


     Writing all to output data dir ./temp_hexag/aiida.save/ :
     XML data file, charge density, pseudopotentials, collected wavefunctions

     init_run     :    190.61s CPU     12.62s WALL (       1 calls)
     electrons    :   8013.09s CPU    517.99s WALL (       1 calls)
     forces       :     58.42s CPU      5.81s WALL (       1 calls)
     stress       :    135.41s CPU     13.29s WALL (       1 calls)

     Called by init_run:
     wfcinit      :    183.73s CPU     10.83s WALL (       1 calls)
     wfcinit:atom :      0.65s CPU      0.07s WALL (      19 calls)
     wfcinit:wfcr :    175.86s CPU     10.23s WALL (      19 calls)
     potinit      :      2.55s CPU      0.31s WALL (       1 calls)
     hinit0       :      1.58s CPU      0.31s WALL (       1 calls)

     Called by electrons:
     c_bands      :   6593.34s CPU    414.47s WALL (      16 calls)
     sum_band     :   1323.20s CPU     81.74s WALL (      16 calls)
     v_of_rho     :     23.88s CPU      3.48s WALL (      17 calls)
     v_h          :      6.46s CPU      0.52s WALL (      17 calls)
     v_xc         :     18.95s CPU      3.29s WALL (      19 calls)
     newd         :     38.00s CPU     17.07s WALL (      17 calls)
     PAW_pot      :     20.05s CPU      0.87s WALL (      17 calls)
     mix_rho      :      9.75s CPU      0.93s WALL (      16 calls)

     Called by c_bands:
     init_us_2    :     48.32s CPU      4.55s WALL (     665 calls)
     cegterg      :   6550.06s CPU    409.16s WALL (     304 calls)

     Called by sum_band:
     sum_band:wei :      0.00s CPU      0.00s WALL (      16 calls)
     sum_band:loo :   1295.03s CPU     61.67s WALL (      16 calls)
     sum_band:buf :      3.70s CPU      0.40s WALL (     304 calls)
     sum_band:ini :     20.21s CPU      1.49s WALL (     304 calls)
     sum_band:cal :    117.15s CPU     10.70s WALL (     304 calls)
     sum_band:bec :     20.61s CPU      1.51s WALL (     304 calls)
     addusdens    :     23.86s CPU     19.40s WALL (      16 calls)
                                        0.00s GPU  (      16 calls)
     addusd:skk   :      0.83s CPU      0.07s WALL (      48 calls)
                                        0.00s GPU  (      48 calls)

     Called by *egterg:
     cdiaghg      :     24.74s CPU      1.52s WALL (    1824 calls)
     cegterg:over :    152.35s CPU     27.93s WALL (    1520 calls)
     cegterg:upda :    220.58s CPU     23.54s WALL (    1520 calls)
     cegterg:last :     82.30s CPU     40.36s WALL (     559 calls)
     h_psi        :   5844.77s CPU    278.53s WALL (    1843 calls)
     s_psi        :    297.07s CPU     27.49s WALL (    1843 calls)
     g_psi        :     22.69s CPU      1.72s WALL (    1520 calls)

     Called by h_psi:
     h_psi:calbec :    369.66s CPU     27.29s WALL (    1843 calls)
     vloc_psi     :   5342.54s CPU    225.89s WALL (    1843 calls)
     add_vuspsi   :    101.50s CPU     23.74s WALL (    1843 calls)

     General routines
     calbec       :    516.07s CPU     41.28s WALL (    2242 calls)
     fft          :     18.37s CPU      3.30s WALL (     244 calls)
     ffts         :      2.74s CPU      0.17s WALL (      33 calls)
     fftw         :   4671.95s CPU    198.08s WALL (   56916 calls)
     interpolate  :      4.27s CPU      0.39s WALL (      17 calls)

     Parallel routines

     PAW routines
     PAW_pot      :     20.05s CPU      0.87s WALL (      17 calls)
     PAW_symme    :      0.00s CPU      0.00s WALL (      33 calls)

     PWSCF        :      2h20m CPU   9m14.16s WALL


   This run was terminated on:  20:31:33  14Jun2024            

=------------------------------------------------------------------------------=
   JOB DONE.
=------------------------------------------------------------------------------=
