
     Program PWSCF v.7.3.1 starts on 14Jun2024 at 19:42:40 

     This program is part of the open-source Quantum ESPRESSO suite
     for quantum simulation of materials; please cite
         "P. Giannozzi et al., J. Phys.:Condens. Matter 21 395502 (2009);
         "P. Giannozzi et al., J. Phys.:Condens. Matter 29 465901 (2017);
         "P. Giannozzi et al., J. Chem. Phys. 152 154105 (2020);
          URL http://www.quantum-espresso.org", 
     in publications or presentations arising from this work. More details at
     http://www.quantum-espresso.org/quote

     Parallel version (MPI & OpenMP), running on      24 processor cores
     Number of MPI processes:                 1
     Threads/MPI process:                    24

     MPI processes distributed on     1 nodes
     5497 MiB available memory on the printing compute node when the environment starts

     Waiting for input...
     Reading input from standard input

     Current dimensions of program PWSCF are:
     Max number of different atomic species (ntypx) = 10
     Max number of k-points (npk) =  40000
     Max angular momentum in pseudopotentials (lmaxx) =  4
     file O.pbe-n-kjpaw_psl.0.1.UPF: wavefunction(s)  2P renormalized
     Message from routine setup:
     using ibrav=0 with symmetry is DISCOURAGED, use correct ibrav instead

     Subspace diagonalization in iterative solution of the eigenvalue problem:
     a serial algorithm will be used


     G-vector sticks info
     --------------------
     sticks:   dense  smooth     PW     G-vecs:    dense   smooth      PW
     Sum        1039     511    151               432659   152803   25137

     Using Slab Decomposition



     bravais-lattice index     =            0
     lattice parameter (alat)  =       6.1177  a.u.
     unit-cell volume          =    3198.5179 (a.u.)^3
     number of atoms/cell      =            5
     number of atomic types    =            3
     number of electrons       =        53.00
     number of Kohn-Sham states=           32
     kinetic-energy cutoff     =      50.0000  Ry
     charge density cutoff     =     400.0000  Ry
     scf convergence threshold =      2.0E-08
     mixing beta               =       0.4000
     number of iterations used =            8  plain     mixing
     Exchange-correlation= PBE
                           (   1   4   3   4   0   0   0)

     celldm(1)=   6.117707  celldm(2)=   0.000000  celldm(3)=   0.000000
     celldm(4)=   0.000000  celldm(5)=   0.000000  celldm(6)=   0.000000

     crystal axes: (cart. coord. in units of alat)
               a(1) = (   1.000000   0.000000   0.000000 )  
               a(2) = (  -0.500000   0.866025   0.000000 )  
               a(3) = (   0.000000   0.000000  16.130661 )  

     reciprocal axes: (cart. coord. in units 2 pi/alat)
               b(1) = (  1.000000  0.577350 -0.000000 )  
               b(2) = (  0.000000  1.154701  0.000000 )  
               b(3) = (  0.000000 -0.000000  0.061994 )  


     PseudoPot. # 1 for O  read from file:
     ../SSSP_1.3.0_PBE_efficiency/O.pbe-n-kjpaw_psl.0.1.UPF
     MD5 check sum: 0234752ac141de4415c5fc33072bef88
     Pseudo is Projector augmented-wave + core cor, Zval =  6.0
     Generated using "atomic" code by A. Dal Corso  v.5.0.99 svn rev. 10869
     Shape of augmentation charge: BESSEL
     Using radial grid of 1095 points,  4 beta functions with: 
                l(1) =   0
                l(2) =   0
                l(3) =   1
                l(4) =   1
     Q(r) pseudized with 0 coefficients 


     PseudoPot. # 2 for Zn read from file:
     ../SSSP_1.3.0_PBE_efficiency/Zn_pbe_v1.uspp.F.UPF
     MD5 check sum: df62231357ef9e81f77b2b3087fa5675
     Pseudo is Ultrasoft, Zval = 20.0
     Generated by new atomic code, or converted to UPF format
     Using radial grid of  943 points,  6 beta functions with: 
                l(1) =   0
                l(2) =   0
                l(3) =   1
                l(4) =   1
                l(5) =   2
                l(6) =   2
     Q(r) pseudized with  8 coefficients,  rinner =    1.100   1.100   1.100
                                                       1.100   1.100

     PseudoPot. # 3 for H  read from file:
     ../SSSP_1.3.0_PBE_efficiency/H.pbe-rrkjus_psl.1.0.0.UPF
     MD5 check sum: f52b6d4d1c606e5624b1dc7b2218f220
     Pseudo is Ultrasoft, Zval =  1.0
     Generated using "atomic" code by A. Dal Corso  v.5.1
     Using radial grid of  929 points,  2 beta functions with: 
                l(1) =   0
                l(2) =   0
     Q(r) pseudized with 0 coefficients 


     atomic species   valence    mass     pseudopotential
     O                 6.00    15.99940     O ( 1.00)
     Zn               20.00    65.38000     Zn( 1.00)
     H                 1.00     1.00794     H ( 1.00)

      6 Sym. Ops. (no inversion) found


                                    s                        frac. trans.

      isym =  1     identity                                     

 cryst.   s( 1) = (     1          0          0      )
                  (     0          1          0      )
                  (     0          0          1      )

 cart.    s( 1) = (  1.0000000  0.0000000  0.0000000 )
                  (  0.0000000  1.0000000  0.0000000 )
                  (  0.0000000  0.0000000  1.0000000 )


      isym =  2     120 deg rotation - cryst. axis [0,0,1]       

 cryst.   s( 2) = (     0          1          0      )
                  (    -1         -1          0      )
                  (     0          0          1      )

 cart.    s( 2) = ( -0.5000000 -0.8660254  0.0000000 )
                  (  0.8660254 -0.5000000  0.0000000 )
                  (  0.0000000  0.0000000  1.0000000 )


      isym =  3     120 deg rotation - cryst. axis [0,0,-1]      

 cryst.   s( 3) = (    -1         -1          0      )
                  (     1          0          0      )
                  (     0          0          1      )

 cart.    s( 3) = ( -0.5000000  0.8660254  0.0000000 )
                  ( -0.8660254 -0.5000000  0.0000000 )
                  (  0.0000000  0.0000000  1.0000000 )


      isym =  4     inv. 180 deg rotation - cart. axis [1,0,0]   

 cryst.   s( 4) = (    -1          0          0      )
                  (     1          1          0      )
                  (     0          0          1      )

 cart.    s( 4) = ( -1.0000000  0.0000000  0.0000000 )
                  (  0.0000000  1.0000000  0.0000000 )
                  (  0.0000000  0.0000000  1.0000000 )


      isym =  5     inv. 180 deg rotation - cryst. axis [0,1,0]  

 cryst.   s( 5) = (     1          1          0      )
                  (     0         -1          0      )
                  (     0          0          1      )

 cart.    s( 5) = (  0.5000000  0.8660254  0.0000000 )
                  (  0.8660254 -0.5000000  0.0000000 )
                  (  0.0000000  0.0000000  1.0000000 )


      isym =  6     inv. 180 deg rotation - cryst. axis [1,1,0]  

 cryst.   s( 6) = (     0         -1          0      )
                  (    -1          0          0      )
                  (     0          0          1      )

 cart.    s( 6) = (  0.5000000 -0.8660254  0.0000000 )
                  ( -0.8660254 -0.5000000  0.0000000 )
                  (  0.0000000  0.0000000  1.0000000 )


   Cartesian axes

     site n.     atom                  positions (alat units)
         1        Zn     tau(   1) = (   0.5000000   0.2886751   0.8074875  )
         2        Zn     tau(   2) = (  -0.0000000   0.5773503   0.0009545  )
         3        O      tau(   3) = (   0.5000000   0.2886751   1.4190438  )
         4        O      tau(   4) = (  -0.0000000   0.5773503   0.6125107  )
         5        H      tau(   5) = (   0.5000000   0.2886751   1.9356794  )

   Crystallographic axes

     site n.     atom                  positions (cryst. coord.)
         1        Zn     tau(   1) = (  0.6666667  0.3333333  0.0500592  )
         2        Zn     tau(   2) = (  0.3333333  0.6666667  0.0000592  )
         3        O      tau(   3) = (  0.6666667  0.3333333  0.0879718  )
         4        O      tau(   4) = (  0.3333333  0.6666667  0.0379718  )
         5        H      tau(   5) = (  0.6666667  0.3333333  0.1200000  )

     number of k points=    19  Marzari-Vanderbilt smearing, width (Ry)=  0.0147
                       cart. coord. in units 2pi/alat
        k(    1) = (   0.0000000   0.0000000   0.0000000), wk =   0.0138889
        k(    2) = (   0.0000000   0.0962250   0.0000000), wk =   0.0833333
        k(    3) = (   0.0000000   0.1924501   0.0000000), wk =   0.0833333
        k(    4) = (   0.0000000   0.2886751   0.0000000), wk =   0.0833333
        k(    5) = (   0.0000000   0.3849002   0.0000000), wk =   0.0833333
        k(    6) = (   0.0000000   0.4811252   0.0000000), wk =   0.0833333
        k(    7) = (   0.0000000  -0.5773503   0.0000000), wk =   0.0416667
        k(    8) = (   0.0833333   0.1443376   0.0000000), wk =   0.0833333
        k(    9) = (   0.0833333   0.2405626   0.0000000), wk =   0.1666667
        k(   10) = (   0.0833333   0.3367877   0.0000000), wk =   0.1666667
        k(   11) = (   0.0833333   0.4330127   0.0000000), wk =   0.1666667
        k(   12) = (   0.0833333   0.5292377   0.0000000), wk =   0.1666667
        k(   13) = (   0.1666667   0.2886751   0.0000000), wk =   0.0833333
        k(   14) = (   0.1666667   0.3849002   0.0000000), wk =   0.1666667
        k(   15) = (   0.1666667   0.4811252   0.0000000), wk =   0.1666667
        k(   16) = (   0.1666667   0.5773503   0.0000000), wk =   0.0833333
        k(   17) = (   0.2500000   0.4330127   0.0000000), wk =   0.0833333
        k(   18) = (   0.2500000   0.5292377   0.0000000), wk =   0.1666667
        k(   19) = (   0.3333333   0.5773503   0.0000000), wk =   0.0277778

                       cryst. coord.
        k(    1) = (   0.0000000   0.0000000   0.0000000), wk =   0.0138889
        k(    2) = (   0.0000000   0.0833333   0.0000000), wk =   0.0833333
        k(    3) = (   0.0000000   0.1666667   0.0000000), wk =   0.0833333
        k(    4) = (   0.0000000   0.2500000   0.0000000), wk =   0.0833333
        k(    5) = (   0.0000000   0.3333333   0.0000000), wk =   0.0833333
        k(    6) = (   0.0000000   0.4166667   0.0000000), wk =   0.0833333
        k(    7) = (   0.0000000  -0.5000000   0.0000000), wk =   0.0416667
        k(    8) = (   0.0833333   0.0833333   0.0000000), wk =   0.0833333
        k(    9) = (   0.0833333   0.1666667   0.0000000), wk =   0.1666667
        k(   10) = (   0.0833333   0.2500000   0.0000000), wk =   0.1666667
        k(   11) = (   0.0833333   0.3333333   0.0000000), wk =   0.1666667
        k(   12) = (   0.0833333   0.4166667   0.0000000), wk =   0.1666667
        k(   13) = (   0.1666667   0.1666667   0.0000000), wk =   0.0833333
        k(   14) = (   0.1666667   0.2500000   0.0000000), wk =   0.1666667
        k(   15) = (   0.1666667   0.3333333   0.0000000), wk =   0.1666667
        k(   16) = (   0.1666667   0.4166667   0.0000000), wk =   0.0833333
        k(   17) = (   0.2500000   0.2500000   0.0000000), wk =   0.0833333
        k(   18) = (   0.2500000   0.3333333   0.0000000), wk =   0.1666667
        k(   19) = (   0.3333333   0.3333333   0.0000000), wk =   0.0277778

     Dense  grid:   432659 G-vectors     FFT dimensions: (  40,  40, 640)

     Smooth grid:   152803 G-vectors     FFT dimensions: (  27,  27, 450)

     Dynamical RAM for                 wfc:       9.32 MB

     Dynamical RAM for     wfc (w. buffer):     186.48 MB

     Dynamical RAM for           str. fact:      19.81 MB

     Dynamical RAM for           local pot:       0.00 MB

     Dynamical RAM for          nlocal pot:      15.73 MB

     Dynamical RAM for                qrad:       4.82 MB

     Dynamical RAM for          rho,v,vnew:      43.24 MB

     Dynamical RAM for               rhoin:      14.41 MB

     Dynamical RAM for            rho*nmix:     105.63 MB

     Dynamical RAM for           G-vectors:      25.92 MB

     Dynamical RAM for          h,s,v(r/c):       0.19 MB

     Dynamical RAM for          <psi|beta>:       0.03 MB

     Dynamical RAM for                 psi:      18.65 MB

     Dynamical RAM for                hpsi:      18.65 MB

     Dynamical RAM for                spsi:      18.65 MB

     Dynamical RAM for      wfcinit/wfcrot:      20.43 MB

     Dynamical RAM for           addusdens:    1241.15 MB

     Dynamical RAM for          addusforce:    1257.66 MB

     Dynamical RAM for         addusstress:    1326.97 MB

     Estimated static dynamical RAM per process >     375.89 MB

     Estimated max dynamical RAM per process >       1.77 GB

     Initial potential from superposition of free atoms

     starting charge      52.9997, renormalised to      53.0000

     negative rho (up, down):  3.380E-04 0.000E+00
     Starting wfcs are   35 randomized atomic wfcs
     Checking if some PAW data can be deallocated... 

     total cpu time spent up to now is       13.4 secs

     Self-consistent Calculation

     iteration #  1     ecut=    50.00 Ry     beta= 0.40
     Davidson diagonalization with overlap

---- Real-time Memory Report at c_bands before calling an iterative solver
          1410 MiB given to the printing process from OS
             0 MiB allocation reported by mallinfo(arena+hblkhd)
          5112 MiB available memory on the node where the printing process lives
------------------
     ethr =  1.00E-02,  avg # of iterations =  4.4

     negative rho (up, down):  1.919E-04 0.000E+00

     total cpu time spent up to now is       45.1 secs

     total energy              =   -1006.12053301 Ry
     estimated scf accuracy    <       2.53868981 Ry

     iteration #  2     ecut=    50.00 Ry     beta= 0.40
     Davidson diagonalization with overlap

---- Real-time Memory Report at c_bands before calling an iterative solver
          1682 MiB given to the printing process from OS
             0 MiB allocation reported by mallinfo(arena+hblkhd)
          5053 MiB available memory on the node where the printing process lives
------------------
     ethr =  4.79E-03,  avg # of iterations =  9.1

     negative rho (up, down):  3.970E-04 0.000E+00

     total cpu time spent up to now is       93.7 secs

     total energy              =   -1001.73252158 Ry
     estimated scf accuracy    <     163.34702399 Ry

     iteration #  3     ecut=    50.00 Ry     beta= 0.40
     Davidson diagonalization with overlap

---- Real-time Memory Report at c_bands before calling an iterative solver
          1687 MiB given to the printing process from OS
             0 MiB allocation reported by mallinfo(arena+hblkhd)
          5043 MiB available memory on the node where the printing process lives
------------------
     ethr =  4.79E-03,  avg # of iterations =  8.0

     negative rho (up, down):  2.440E-04 0.000E+00

     total cpu time spent up to now is      142.9 secs

     total energy              =   -1006.94601090 Ry
     estimated scf accuracy    <       2.00789885 Ry

     iteration #  4     ecut=    50.00 Ry     beta= 0.40
     Davidson diagonalization with overlap

---- Real-time Memory Report at c_bands before calling an iterative solver
          1692 MiB given to the printing process from OS
             0 MiB allocation reported by mallinfo(arena+hblkhd)
          5037 MiB available memory on the node where the printing process lives
------------------
     ethr =  3.79E-03,  avg # of iterations =  3.2

     negative rho (up, down):  1.561E-04 0.000E+00

     total cpu time spent up to now is      172.4 secs

     total energy              =   -1007.26847211 Ry
     estimated scf accuracy    <       0.40820384 Ry

     iteration #  5     ecut=    50.00 Ry     beta= 0.40
     Davidson diagonalization with overlap

---- Real-time Memory Report at c_bands before calling an iterative solver
          1696 MiB given to the printing process from OS
             0 MiB allocation reported by mallinfo(arena+hblkhd)
          5028 MiB available memory on the node where the printing process lives
------------------
     ethr =  7.70E-04,  avg # of iterations =  2.2

     negative rho (up, down):  1.527E-04 0.000E+00

     total cpu time spent up to now is      201.3 secs

     total energy              =   -1007.27416831 Ry
     estimated scf accuracy    <       0.22107479 Ry

     iteration #  6     ecut=    50.00 Ry     beta= 0.40
     Davidson diagonalization with overlap

---- Real-time Memory Report at c_bands before calling an iterative solver
          1701 MiB given to the printing process from OS
             0 MiB allocation reported by mallinfo(arena+hblkhd)
          5021 MiB available memory on the node where the printing process lives
------------------
     ethr =  4.17E-04,  avg # of iterations =  1.2

     negative rho (up, down):  1.722E-04 0.000E+00

     total cpu time spent up to now is      228.3 secs

     total energy              =   -1007.27332186 Ry
     estimated scf accuracy    <       0.06469490 Ry

     iteration #  7     ecut=    50.00 Ry     beta= 0.40
     Davidson diagonalization with overlap

---- Real-time Memory Report at c_bands before calling an iterative solver
          1706 MiB given to the printing process from OS
             0 MiB allocation reported by mallinfo(arena+hblkhd)
          5016 MiB available memory on the node where the printing process lives
------------------
     ethr =  1.22E-04,  avg # of iterations =  3.1

     negative rho (up, down):  2.047E-04 0.000E+00

     total cpu time spent up to now is      255.5 secs

     total energy              =   -1007.26147407 Ry
     estimated scf accuracy    <       0.05925107 Ry

     iteration #  8     ecut=    50.00 Ry     beta= 0.40
     Davidson diagonalization with overlap

---- Real-time Memory Report at c_bands before calling an iterative solver
          1711 MiB given to the printing process from OS
             0 MiB allocation reported by mallinfo(arena+hblkhd)
          5009 MiB available memory on the node where the printing process lives
------------------
     ethr =  1.12E-04,  avg # of iterations =  4.5

     negative rho (up, down):  2.132E-04 0.000E+00

     total cpu time spent up to now is      285.5 secs

     total energy              =   -1007.26143886 Ry
     estimated scf accuracy    <       0.09183469 Ry

     iteration #  9     ecut=    50.00 Ry     beta= 0.40
     Davidson diagonalization with overlap

---- Real-time Memory Report at c_bands before calling an iterative solver
          1715 MiB given to the printing process from OS
             0 MiB allocation reported by mallinfo(arena+hblkhd)
          5006 MiB available memory on the node where the printing process lives
------------------
     ethr =  1.12E-04,  avg # of iterations =  1.3

     negative rho (up, down):  2.264E-04 0.000E+00

     total cpu time spent up to now is      313.4 secs

     total energy              =   -1007.26188023 Ry
     estimated scf accuracy    <       0.00683973 Ry

     iteration # 10     ecut=    50.00 Ry     beta= 0.40
     Davidson diagonalization with overlap

---- Real-time Memory Report at c_bands before calling an iterative solver
          1720 MiB given to the printing process from OS
             0 MiB allocation reported by mallinfo(arena+hblkhd)
          4999 MiB available memory on the node where the printing process lives
------------------
     ethr =  1.29E-05,  avg # of iterations =  7.7

     negative rho (up, down):  2.367E-04 0.000E+00

     total cpu time spent up to now is      347.9 secs

     total energy              =   -1007.26051086 Ry
     estimated scf accuracy    <       0.00768759 Ry

     iteration # 11     ecut=    50.00 Ry     beta= 0.40
     Davidson diagonalization with overlap

---- Real-time Memory Report at c_bands before calling an iterative solver
          1723 MiB given to the printing process from OS
             0 MiB allocation reported by mallinfo(arena+hblkhd)
          5000 MiB available memory on the node where the printing process lives
------------------
     ethr =  1.29E-05,  avg # of iterations =  5.8

     negative rho (up, down):  2.744E-04 0.000E+00

     total cpu time spent up to now is      379.9 secs

     total energy              =   -1007.26026600 Ry
     estimated scf accuracy    <       0.00149495 Ry

     iteration # 12     ecut=    50.00 Ry     beta= 0.40
     Davidson diagonalization with overlap

---- Real-time Memory Report at c_bands before calling an iterative solver
          1723 MiB given to the printing process from OS
             0 MiB allocation reported by mallinfo(arena+hblkhd)
          5004 MiB available memory on the node where the printing process lives
------------------
     ethr =  2.82E-06,  avg # of iterations = 11.9

     negative rho (up, down):  2.932E-04 0.000E+00

     total cpu time spent up to now is      417.2 secs

     total energy              =   -1007.26036476 Ry
     estimated scf accuracy    <       0.00002695 Ry

     iteration # 13     ecut=    50.00 Ry     beta= 0.40
     Davidson diagonalization with overlap

---- Real-time Memory Report at c_bands before calling an iterative solver
          1723 MiB given to the printing process from OS
             0 MiB allocation reported by mallinfo(arena+hblkhd)
          5006 MiB available memory on the node where the printing process lives
------------------
     ethr =  5.09E-08,  avg # of iterations =  2.9

     negative rho (up, down):  3.608E-04 0.000E+00

     total cpu time spent up to now is      452.2 secs

     total energy              =   -1007.26036839 Ry
     estimated scf accuracy    <       0.00001213 Ry

     iteration # 14     ecut=    50.00 Ry     beta= 0.40
     Davidson diagonalization with overlap

---- Real-time Memory Report at c_bands before calling an iterative solver
          1723 MiB given to the printing process from OS
             0 MiB allocation reported by mallinfo(arena+hblkhd)
          5008 MiB available memory on the node where the printing process lives
------------------
     ethr =  2.29E-08,  avg # of iterations =  1.9

     negative rho (up, down):  3.825E-04 0.000E+00

     total cpu time spent up to now is      487.3 secs

     total energy              =   -1007.26036923 Ry
     estimated scf accuracy    <       0.00000146 Ry

     iteration # 15     ecut=    50.00 Ry     beta= 0.40
     Davidson diagonalization with overlap

---- Real-time Memory Report at c_bands before calling an iterative solver
          1723 MiB given to the printing process from OS
             0 MiB allocation reported by mallinfo(arena+hblkhd)
          5012 MiB available memory on the node where the printing process lives
------------------
     ethr =  2.75E-09,  avg # of iterations =  1.4

     negative rho (up, down):  3.805E-04 0.000E+00

     total cpu time spent up to now is      519.2 secs

     total energy              =   -1007.26036931 Ry
     estimated scf accuracy    <       0.00000014 Ry

     iteration # 16     ecut=    50.00 Ry     beta= 0.40
     Davidson diagonalization with overlap

---- Real-time Memory Report at c_bands before calling an iterative solver
          1723 MiB given to the printing process from OS
             0 MiB allocation reported by mallinfo(arena+hblkhd)
          5014 MiB available memory on the node where the printing process lives
------------------
     ethr =  2.55E-10,  avg # of iterations =  1.6

     negative rho (up, down):  3.875E-04 0.000E+00

     total cpu time spent up to now is      549.6 secs

     End of self-consistent calculation

          k = 0.0000 0.0000 0.0000 ( 18895 PWs)   bands (ev):

  -128.6325-127.6447 -82.8352 -82.8352 -82.7351 -81.8790 -81.8134 -81.8134
   -21.9567 -19.2165 -10.2121  -9.8845  -9.8845  -9.6809  -9.6503  -9.6503
    -9.3253  -9.3253  -8.6216  -8.6216  -8.4589  -6.9083  -5.2511  -4.6251
    -4.6251  -3.0211  -2.9221  -2.9221  -1.1691   0.8491   1.0096   1.1039

     occupation numbers 
     1.0000   1.0000   1.0000   1.0000   1.0000   1.0000   1.0000   1.0000
     1.0000   1.0000   1.0000   1.0000   1.0000   1.0000   1.0000   1.0000
     1.0000   1.0000   1.0000   1.0000   1.0000   1.0000   1.0000   1.0000
     1.0000   0.3397   0.1083   0.1083   0.0000   0.0000   0.0000   0.0000

          k = 0.0000 0.0962 0.0000 ( 18926 PWs)   bands (ev):

  -128.6324-127.6447 -82.8353 -82.8352 -82.7351 -81.8789 -81.8136 -81.8134
   -21.9272 -19.1996 -10.1896  -9.9216  -9.8676  -9.6645  -9.6340  -9.6059
    -9.3327  -9.3185  -8.6546  -8.6221  -8.3890  -6.8538  -5.2631  -4.8144
    -4.6980  -3.1335  -2.9393  -2.8112  -0.9485   0.9774   1.1428   1.2377

     occupation numbers 
     1.0000   1.0000   1.0000   1.0000   1.0000   1.0000   1.0000   1.0000
     1.0000   1.0000   1.0000   1.0000   1.0000   1.0000   1.0000   1.0000
     1.0000   1.0000   1.0000   1.0000   1.0000   1.0000   1.0000   1.0000
     1.0000   0.7454   0.1363   0.0175   0.0000   0.0000   0.0000   0.0000

          k = 0.0000 0.1925 0.0000 ( 19042 PWs)   bands (ev):

  -128.6324-127.6447 -82.8357 -82.8353 -82.7350 -81.8789 -81.8140 -81.8136
   -21.8457 -19.1527 -10.1429  -9.9885  -9.8249  -9.6949  -9.5894  -9.4376
    -9.3420  -9.2956  -8.7061  -8.6206  -8.2094  -6.7345  -5.5503  -4.9205
    -4.8981  -3.3942  -2.9860  -2.5950  -0.3821   1.3591   1.5340   1.6358

     occupation numbers 
     1.0000   1.0000   1.0000   1.0000   1.0000   1.0000   1.0000   1.0000
     1.0000   1.0000   1.0000   1.0000   1.0000   1.0000   1.0000   1.0000
     1.0000   1.0000   1.0000   1.0000   1.0000   1.0000   1.0000   1.0000
     1.0000   1.0622   0.2383   0.0001   0.0000   0.0000   0.0000   0.0000

          k = 0.0000 0.2887 0.0000 ( 19096 PWs)   bands (ev):

  -128.6324-127.6447 -82.8362 -82.8355 -82.7350 -81.8789 -81.8146 -81.8137
   -21.7320 -19.0877 -10.1514  -9.9921  -9.7758  -9.7373  -9.5279  -9.3685
    -9.2526  -9.2082  -8.7464  -8.6088  -7.9165  -6.7796  -5.9011  -5.1758
    -4.7321  -3.7082  -3.0495  -2.3285   0.3737   1.9476   2.1301   2.2843

     occupation numbers 
     1.0000   1.0000   1.0000   1.0000   1.0000   1.0000   1.0000   1.0000
     1.0000   1.0000   1.0000   1.0000   1.0000   1.0000   1.0000   1.0000
     1.0000   1.0000   1.0000   1.0000   1.0000   1.0000   1.0000   1.0000
     1.0000   1.0003   0.4351   0.0000   0.0000   0.0000   0.0000   0.0000

          k = 0.0000 0.3849 0.0000 ( 19138 PWs)   bands (ev):

  -128.6324-127.6447 -82.8366 -82.8356 -82.7349 -81.8788 -81.8151 -81.8139
   -21.6153 -19.0213 -10.2069  -9.9389  -9.7800  -9.7389  -9.4656  -9.3422
    -9.1982  -9.0283  -8.7584  -8.5789  -7.6388  -7.1074  -5.8949  -5.4634
    -4.3998  -3.9201  -3.1122  -2.0348   0.8557   1.3784   2.8637   3.0672

     occupation numbers 
     1.0000   1.0000   1.0000   1.0000   1.0000   1.0000   1.0000   1.0000
     1.0000   1.0000   1.0000   1.0000   1.0000   1.0000   1.0000   1.0000
     1.0000   1.0000   1.0000   1.0000   1.0000   1.0000   1.0000   1.0000
     1.0000   1.0000   0.6680   0.0000   0.0000   0.0000   0.0000   0.0000

          k = 0.0000 0.4811 0.0000 ( 19132 PWs)   bands (ev):

  -128.6324-127.6446 -82.8369 -82.8357 -82.7349 -81.8788 -81.8155 -81.8140
   -21.5279 -18.9718 -10.2426  -9.9033  -9.8114  -9.7197  -9.4191  -9.2932
    -9.1551  -8.9005  -8.6863  -8.5382  -7.9577  -6.9228  -5.8650  -5.6843
    -4.3354  -3.4460  -3.1577  -1.7967  -0.7765   2.1182   3.6825   3.9914

     occupation numbers 
     1.0000   1.0000   1.0000   1.0000   1.0000   1.0000   1.0000   1.0000
     1.0000   1.0000   1.0000   1.0000   1.0000   1.0000   1.0000   1.0000
     1.0000   1.0000   1.0000   1.0000   1.0000   1.0000   1.0000   1.0000
     1.0000   1.0384   0.8282   0.0000   0.0000   0.0000   0.0000   0.0000

          k = 0.0000-0.5774 0.0000 ( 19154 PWs)   bands (ev):

  -128.6324-127.6446 -82.8371 -82.8358 -82.7349 -81.8787 -81.8157 -81.8141
   -21.4955 -18.9535 -10.2532  -9.8934  -9.8231  -9.7142  -9.4018  -9.2678
    -9.1396  -8.8660  -8.5177  -8.4893  -8.3131  -6.7491  -5.8846  -5.7683
    -4.3864  -3.1742  -2.3795  -2.3520  -1.5553   2.5389   4.0328   4.2903

     occupation numbers 
     1.0000   1.0000   1.0000   1.0000   1.0000   1.0000   1.0000   1.0000
     1.0000   1.0000   1.0000   1.0000   1.0000   1.0000   1.0000   1.0000
     1.0000   1.0000   1.0000   1.0000   1.0000   1.0000   1.0000   1.0000
     1.0000   0.8795   0.0000   0.0000   0.0000   0.0000   0.0000   0.0000

          k = 0.0833 0.1443 0.0000 ( 18949 PWs)   bands (ev):

  -128.6324-127.6447 -82.8356 -82.8353 -82.7350 -81.8789 -81.8138 -81.8135
   -21.8717 -19.1676 -10.1520  -9.9743  -9.8390  -9.6683  -9.6250  -9.4815
    -9.3429  -9.3027  -8.6919  -8.6226  -8.2675  -6.7647  -5.4215  -4.9579
    -4.8270  -3.3076  -2.9792  -2.6570  -0.5554   1.2327   1.4054   1.5037

     occupation numbers 
     1.0000   1.0000   1.0000   1.0000   1.0000   1.0000   1.0000   1.0000
     1.0000   1.0000   1.0000   1.0000   1.0000   1.0000   1.0000   1.0000
     1.0000   1.0000   1.0000   1.0000   1.0000   1.0000   1.0000   1.0000
     1.0000   1.0819   0.2210   0.0005   0.0000   0.0000   0.0000   0.0000

          k = 0.0833 0.2406 0.0000 ( 19034 PWs)   bands (ev):

  -128.6324-127.6447 -82.8360 -82.8354 -82.7350 -81.8789 -81.8143 -81.8137
   -21.7741 -19.1116 -10.1146 -10.0228  -9.7989  -9.6958  -9.5778  -9.3667
    -9.3012  -9.2485  -8.7326  -8.6172  -8.0284  -6.7062  -5.7896  -5.1692
    -4.7829  -3.5772  -3.0509  -2.4241   0.1074   1.7316   1.9118   2.0289

     occupation numbers 
     1.0000   1.0000   1.0000   1.0000   1.0000   1.0000   1.0000   1.0000
     1.0000   1.0000   1.0000   1.0000   1.0000   1.0000   1.0000   1.0000
     1.0000   1.0000   1.0000   1.0000   1.0000   1.0000   1.0000   1.0000
     1.0000   1.0053   0.4402   0.0000   0.0000   0.0000   0.0000   0.0000

          k = 0.0833 0.3368 0.0000 ( 19101 PWs)   bands (ev):

  -128.6324-127.6447 -82.8364 -82.8356 -82.7350 -81.8788 -81.8149 -81.8139
   -21.6587 -19.0458 -10.1560  -9.9776  -9.7748  -9.7247  -9.5145  -9.3503
    -9.2324  -9.0911  -8.7596  -8.5935  -7.6940  -6.9602  -5.9135  -5.4752
    -4.5057  -3.8430  -3.1311  -2.1442   0.8968   1.9472   2.5463   2.7713

     occupation numbers 
     1.0000   1.0000   1.0000   1.0000   1.0000   1.0000   1.0000   1.0000
     1.0000   1.0000   1.0000   1.0000   1.0000   1.0000   1.0000   1.0000
     1.0000   1.0000   1.0000   1.0000   1.0000   1.0000   1.0000   1.0000
     1.0000   1.0000   0.7371   0.0000   0.0000   0.0000   0.0000   0.0000

          k = 0.0833 0.4330 0.0000 ( 19155 PWs)   bands (ev):

  -128.6324-127.6447 -82.8368 -82.8357 -82.7349 -81.8788 -81.8154 -81.8140
   -21.5563 -18.9877 -10.1987  -9.9226  -9.7903  -9.7246  -9.4585  -9.3037
    -9.1798  -8.9470  -8.7507  -8.5478  -7.7071  -7.0471  -5.8954  -5.7237
    -4.2570  -3.7501  -3.1969  -1.8644   0.1379   1.8788   3.3648   3.6198

     occupation numbers 
     1.0000   1.0000   1.0000   1.0000   1.0000   1.0000   1.0000   1.0000
     1.0000   1.0000   1.0000   1.0000   1.0000   1.0000   1.0000   1.0000
     1.0000   1.0000   1.0000   1.0000   1.0000   1.0000   1.0000   1.0000
     1.0000   1.0001   0.9413   0.0000   0.0000   0.0000   0.0000   0.0000

          k = 0.0833 0.5292 0.0000 ( 19135 PWs)   bands (ev):

  -128.6324-127.6446 -82.8370 -82.8358 -82.7349 -81.8788 -81.8156 -81.8141
   -21.4962 -18.9536 -10.2172  -9.8968  -9.8084  -9.7189  -9.4252  -9.2589
    -9.1461  -8.8659  -8.6345  -8.4891  -8.1424  -6.7783  -5.9377  -5.8543
    -4.3280  -3.2492  -2.8556  -1.7790  -1.3673   2.5794   4.0042   4.3138

     occupation numbers 
     1.0000   1.0000   1.0000   1.0000   1.0000   1.0000   1.0000   1.0000
     1.0000   1.0000   1.0000   1.0000   1.0000   1.0000   1.0000   1.0000
     1.0000   1.0000   1.0000   1.0000   1.0000   1.0000   1.0000   1.0000
     1.0000   1.0403   0.0390   0.0000   0.0000   0.0000   0.0000   0.0000

          k = 0.1667 0.2887 0.0000 ( 19063 PWs)   bands (ev):

  -128.6324-127.6447 -82.8363 -82.8356 -82.7350 -81.8788 -81.8147 -81.8139
   -21.6745 -19.0547 -10.0977 -10.0263  -9.7837  -9.6862  -9.5611  -9.3478
    -9.2547  -9.1098  -8.7573  -8.5993  -7.7259  -6.8638  -5.8965  -5.5685
    -4.5280  -3.7768  -3.1679  -2.1804   0.8221   2.2606   2.4942   2.6754

     occupation numbers 
     1.0000   1.0000   1.0000   1.0000   1.0000   1.0000   1.0000   1.0000
     1.0000   1.0000   1.0000   1.0000   1.0000   1.0000   1.0000   1.0000
     1.0000   1.0000   1.0000   1.0000   1.0000   1.0000   1.0000   1.0000
     1.0000   1.0000   0.8605   0.0000   0.0000   0.0000   0.0000   0.0000

          k = 0.1667 0.3849 0.0000 ( 19126 PWs)   bands (ev):

  -128.6324-127.6447 -82.8366 -82.8358 -82.7349 -81.8788 -81.8152 -81.8141
   -21.5731 -18.9968 -10.1189  -9.9667  -9.7850  -9.6921  -9.5215  -9.2971
    -9.2127  -8.9852  -8.7743  -8.5506  -7.5098  -7.0827  -6.0407  -5.7907
    -4.1784  -3.8388  -3.2874  -1.9044   1.1376   1.9089   2.9959   3.2695

     occupation numbers 
     1.0000   1.0000   1.0000   1.0000   1.0000   1.0000   1.0000   1.0000
     1.0000   1.0000   1.0000   1.0000   1.0000   1.0000   1.0000   1.0000
     1.0000   1.0000   1.0000   1.0000   1.0000   1.0000   1.0000   1.0000
     1.0000   1.0000   1.0747   0.0000   0.0000   0.0000   0.0000   0.0000

          k = 0.1667 0.4811 0.0000 ( 19131 PWs)   bands (ev):

  -128.6324-127.6446 -82.8368 -82.8359 -82.7349 -81.8788 -81.8154 -81.8143
   -21.4976 -18.9538 -10.1304  -9.9154  -9.7956  -9.7013  -9.4843  -9.2353
    -9.1593  -8.8811  -8.7536  -8.4807  -7.8783  -6.8375  -6.2583  -5.8362
    -4.1912  -3.4333  -3.0993  -1.6745  -0.4244   2.3471   3.0786   4.0287

     occupation numbers 
     1.0000   1.0000   1.0000   1.0000   1.0000   1.0000   1.0000   1.0000
     1.0000   1.0000   1.0000   1.0000   1.0000   1.0000   1.0000   1.0000
     1.0000   1.0000   1.0000   1.0000   1.0000   1.0000   1.0000   1.0000
     1.0000   1.0440   0.6194   0.0000   0.0000   0.0000   0.0000   0.0000

          k = 0.1667 0.5774 0.0000 ( 19115 PWs)   bands (ev):

  -128.6324-127.6446 -82.8369 -82.8360 -82.7349 -81.8787 -81.8155 -81.8144
   -21.4697 -18.9380 -10.1325  -9.8976  -9.8017  -9.7048  -9.4693  -9.2185
    -9.1253  -8.8443  -8.6726  -8.4076  -8.1815  -6.7214  -6.2829  -5.8937
    -4.2319  -3.4435  -2.0335  -1.9710  -1.4434   2.3338   3.6045   4.3158

     occupation numbers 
     1.0000   1.0000   1.0000   1.0000   1.0000   1.0000   1.0000   1.0000
     1.0000   1.0000   1.0000   1.0000   1.0000   1.0000   1.0000   1.0000
     1.0000   1.0000   1.0000   1.0000   1.0000   1.0000   1.0000   1.0000
     1.0000   1.0395   0.0000   0.0000   0.0000   0.0000   0.0000   0.0000

          k = 0.2500 0.4330 0.0000 ( 19111 PWs)   bands (ev):

  -128.6324-127.6446 -82.8367 -82.8360 -82.7349 -81.8787 -81.8153 -81.8144
   -21.4983 -18.9539 -10.0673  -9.9436  -9.8008  -9.6653  -9.5294  -9.2177
    -9.1677  -8.9063  -8.7850  -8.4764  -7.7276  -6.8736  -6.4434  -5.8250
    -4.0986  -3.5498  -3.1702  -1.6673   0.5311   1.3747   2.9030   3.9822

     occupation numbers 
     1.0000   1.0000   1.0000   1.0000   1.0000   1.0000   1.0000   1.0000
     1.0000   1.0000   1.0000   1.0000   1.0000   1.0000   1.0000   1.0000
     1.0000   1.0000   1.0000   1.0000   1.0000   1.0000   1.0000   1.0000
     1.0000   1.0088   0.8673   0.0000   0.0000   0.0000   0.0000   0.0000

          k = 0.2500 0.5292 0.0000 ( 19130 PWs)   bands (ev):

  -128.6324-127.6446 -82.8367 -82.8362 -82.7349 -81.8787 -81.8153 -81.8146
   -21.4549 -18.9289 -10.0380  -9.9141  -9.8193  -9.6522  -9.5312  -9.2063
    -9.0635  -8.8545  -8.7286  -8.3917  -8.0771  -6.8770  -6.4349  -5.9038
    -4.0849  -3.6611  -2.1786  -1.5229  -0.7473   0.8122   3.8881   4.6446

     occupation numbers 
     1.0000   1.0000   1.0000   1.0000   1.0000   1.0000   1.0000   1.0000
     1.0000   1.0000   1.0000   1.0000   1.0000   1.0000   1.0000   1.0000
     1.0000   1.0000   1.0000   1.0000   1.0000   1.0000   1.0000   1.0000
     1.0000   1.0009   0.0000   0.0000   0.0000   0.0000   0.0000   0.0000

          k = 0.3333 0.5774 0.0000 ( 19131 PWs)   bands (ev):

  -128.6324-127.6446 -82.8365 -82.8365 -82.7349 -81.8787 -81.8151 -81.8149
   -21.4393 -18.9198  -9.9852  -9.9200  -9.8378  -9.5917  -9.5895  -9.2051
    -8.9927  -8.8655  -8.6710  -8.2946  -8.2541  -7.0316  -6.3565  -5.9556
    -3.9266  -3.8742  -1.4889  -1.3092  -0.5837  -0.5791   4.5007   4.8231

     occupation numbers 
     1.0000   1.0000   1.0000   1.0000   1.0000   1.0000   1.0000   1.0000
     1.0000   1.0000   1.0000   1.0000   1.0000   1.0000   1.0000   1.0000
     1.0000   1.0000   1.0000   1.0000   1.0000   1.0000   1.0000   1.0000
     1.0000   1.0000   0.0000   0.0000   0.0000   0.0000   0.0000   0.0000

     the Fermi energy is    -3.0396 ev

!    total energy              =   -1007.26036929 Ry
     estimated scf accuracy    <       0.00000002 Ry
     smearing contrib. (-TS)   =      -0.00059460 Ry
     internal energy E=F+TS    =   -1007.25977469 Ry

     The total energy is F=E-TS. E is the sum of the following terms:
     one-electron contribution =  -15037.59770476 Ry
     hartree contribution      =    7515.81341717 Ry
     xc contribution           =     -99.45138504 Ry
     ewald contribution        =    6633.03286725 Ry
     one-center paw contrib.   =     -19.05696931 Ry
      -> PAW hartree energy AE =      49.76813284 Ry
      -> PAW hartree energy PS =     -49.53903191 Ry
      -> PAW xc energy AE      =     -32.95559069 Ry
      -> PAW xc energy PS      =      13.66952045 Ry
      -> total E_H with PAW    =    7516.04251810 Ry
      -> total E_XC with PAW   =    -118.73745528 Ry

     convergence has been achieved in  16 iterations

     negative rho (up, down):  3.875E-04 0.000E+00

     Forces acting on atoms (cartesian axes, Ry/au):

     atom    1 type  2   force =     0.00000000   -0.00000000    0.04839956
     atom    2 type  2   force =     0.00000000    0.00000000   -0.01215407
     atom    3 type  1   force =     0.00000000    0.00000000    0.14622127
     atom    4 type  1   force =     0.00000000   -0.00000000   -0.00394282
     atom    5 type  3   force =     0.00000000    0.00000000   -0.17852394
     The non-local contrib.  to forces
     atom    1 type  2   force =     0.00000000    0.00000000    0.01820363
     atom    2 type  2   force =     0.00000000   -0.00000000   -0.32313466
     atom    3 type  1   force =     0.00000000    0.00000000    0.36066131
     atom    4 type  1   force =     0.00000000   -0.00000000   -0.02805281
     atom    5 type  3   force =     0.00000000   -0.00000000   -0.01126870
     The ionic contribution  to forces
     atom    1 type  2   force =    -0.00000057    0.00000033  109.84256837
     atom    2 type  2   force =     0.00000005   -0.00000003 -228.97498476
     atom    3 type  1   force =    -0.00000000    0.00000000   94.71953146
     atom    4 type  1   force =     0.00000053   -0.00000030    7.35571914
     atom    5 type  3   force =    -0.00000000    0.00000000   17.05716578
     The local contribution  to forces
     atom    1 type  2   force =    -0.00001935    0.00001117 -109.81174885
     atom    2 type  2   force =     0.00001961   -0.00001132  229.28635758
     atom    3 type  1   force =    -0.00000133    0.00000077  -94.92784277
     atom    4 type  1   force =     0.00000113   -0.00000065   -7.33156859
     atom    5 type  3   force =    -0.00000004    0.00000002  -17.22454419
     The core correction contribution to forces
     atom    1 type  2   force =     0.00000000    0.00000000    0.00000000
     atom    2 type  2   force =     0.00000000    0.00000000    0.00000000
     atom    3 type  1   force =    -0.00000000    0.00000000   -0.00609170
     atom    4 type  1   force =     0.00000000   -0.00000000    0.00006960
     atom    5 type  3   force =     0.00000000    0.00000000    0.00000000
     The Hubbard contrib.    to forces
     atom    1 type  2   force =     0.00000000    0.00000000    0.00000000
     atom    2 type  2   force =     0.00000000    0.00000000    0.00000000
     atom    3 type  1   force =     0.00000000    0.00000000    0.00000000
     atom    4 type  1   force =     0.00000000    0.00000000    0.00000000
     atom    5 type  3   force =     0.00000000    0.00000000    0.00000000
     The SCF correction term to forces
     atom    1 type  2   force =    -0.00000000    0.00000000   -0.00075631
     atom    2 type  2   force =     0.00000000   -0.00000000   -0.00052495
     atom    3 type  1   force =    -0.00000000    0.00000000   -0.00016975
     atom    4 type  1   force =     0.00000000   -0.00000000   -0.00024288
     atom    5 type  3   force =    -0.00000000    0.00000000   -0.00000955

     Total force =     0.236130     Total SCF correction =     0.000967


     Computing stress (Cartesian axis) and pressure


     negative rho (up, down):  3.875E-04 0.000E+00
          total   stress  (Ry/bohr**3)                   (kbar)     P=      -11.90
  -0.00002189   0.00000000   0.00000000           -3.22        0.00        0.00
   0.00000000  -0.00002189   0.00000000            0.00       -3.22        0.00
   0.00000000  -0.00000000  -0.00019890            0.00       -0.00      -29.26

     kinetic stress (kbar)   3529.17      0.00      0.00
                                0.00   3529.17     -0.00
                                0.00     -0.00   3431.72

     local   stress (kbar)-653239.94     -0.00      0.00
                               -0.00-653239.94     -0.00
                                0.00     -0.00 649805.44

     nonloc. stress (kbar)    -67.96      0.00      0.00
                                0.00    -67.96     -0.00
                                0.00     -0.00    -63.87

     hartree stress (kbar) 331863.30     -0.00     -0.00
                               -0.00 331863.30     -0.00
                               -0.00     -0.00-318062.02

     exc-cor stress (kbar)  -1421.61      0.00     -0.00
                                0.00  -1421.61      0.00
                               -0.00      0.00  -1419.89

     corecor stress (kbar)    -39.14     -0.00     -0.00
                               -0.00    -39.14      0.00
                               -0.00      0.00    -38.77

     ewald   stress (kbar) 319372.96      0.00     -0.00
                                0.00 319372.96      0.00
                               -0.00      0.00-333681.87

     hubbard stress (kbar)      0.00      0.00      0.00
                                0.00      0.00      0.00
                                0.00      0.00      0.00

     DFT-D   stress (kbar)      0.00      0.00      0.00
                                0.00      0.00      0.00
                                0.00      0.00      0.00

     XDM     stress (kbar)      0.00      0.00      0.00
                                0.00      0.00      0.00
                                0.00      0.00      0.00

     dft-nl  stress (kbar)      0.00      0.00      0.00
                                0.00      0.00      0.00
                                0.00      0.00      0.00

     TS-vdW  stress (kbar)      0.00      0.00      0.00
                                0.00      0.00      0.00
                                0.00      0.00      0.00

     MDB     stress (kbar)      0.00      0.00      0.00
                                0.00      0.00      0.00
                                0.00      0.00      0.00

     3D-RISM stress (kbar)      0.00      0.00      0.00
                                0.00      0.00      0.00
                                0.00      0.00      0.00


     Writing all to output data dir ./temp_hexag/aiida.save/ :
     XML data file, charge density, pseudopotentials, collected wavefunctions

     init_run     :    194.68s CPU     12.99s WALL (       1 calls)
     electrons    :   8293.95s CPU    536.43s WALL (       1 calls)
     forces       :     41.91s CPU      5.16s WALL (       1 calls)
     stress       :     91.90s CPU     11.85s WALL (       1 calls)

     Called by init_run:
     wfcinit      :    187.99s CPU     11.00s WALL (       1 calls)
     wfcinit:atom :      1.21s CPU      0.09s WALL (      19 calls)
     wfcinit:wfcr :    179.95s CPU     10.37s WALL (      19 calls)
     potinit      :      2.29s CPU      0.32s WALL (       1 calls)
     hinit0       :      1.59s CPU      0.31s WALL (       1 calls)

     Called by electrons:
     c_bands      :   6751.70s CPU    426.14s WALL (      16 calls)
     sum_band     :   1445.28s CPU     87.93s WALL (      16 calls)
     v_of_rho     :     24.21s CPU      3.52s WALL (      17 calls)
     v_h          :      5.92s CPU      0.48s WALL (      17 calls)
     v_xc         :     20.26s CPU      3.40s WALL (      19 calls)
     newd         :     36.91s CPU     17.66s WALL (      17 calls)
     PAW_pot      :     21.40s CPU      0.95s WALL (      17 calls)
     mix_rho      :      9.36s CPU      0.90s WALL (      16 calls)

     Called by c_bands:
     init_us_2    :     49.95s CPU      4.43s WALL (     665 calls)
     cegterg      :   6705.51s CPU    420.79s WALL (     304 calls)

     Called by sum_band:
     sum_band:wei :      0.00s CPU      0.00s WALL (      16 calls)
     sum_band:loo :   1416.88s CPU     67.08s WALL (      16 calls)
     sum_band:buf :      3.40s CPU      0.39s WALL (     304 calls)
     sum_band:ini :     22.94s CPU      1.55s WALL (     304 calls)
     sum_band:cal :    116.65s CPU     11.06s WALL (     304 calls)
     sum_band:bec :     17.48s CPU      1.29s WALL (     304 calls)
     addusdens    :     24.95s CPU     20.16s WALL (      16 calls)
                                        0.00s GPU  (      16 calls)
     addusd:skk   :      0.10s CPU      0.08s WALL (      48 calls)
                                        0.00s GPU  (      48 calls)

     Called by *egterg:
     cdiaghg      :     17.75s CPU      1.32s WALL (    1641 calls)
     cegterg:over :    124.49s CPU     27.15s WALL (    1337 calls)
     cegterg:upda :    211.99s CPU     23.26s WALL (    1337 calls)
     cegterg:last :     86.71s CPU     43.38s WALL (     591 calls)
     h_psi        :   6055.87s CPU    288.34s WALL (    1660 calls)
     s_psi        :    290.00s CPU     27.95s WALL (    1660 calls)
     g_psi        :     20.56s CPU      1.73s WALL (    1337 calls)

     Called by h_psi:
     h_psi:calbec :    364.41s CPU     27.65s WALL (    1660 calls)
     vloc_psi     :   5565.89s CPU    234.89s WALL (    1660 calls)
     add_vuspsi   :     95.09s CPU     24.20s WALL (    1660 calls)

     General routines
     calbec       :    510.54s CPU     41.96s WALL (    2059 calls)
     fft          :     20.22s CPU      3.39s WALL (     244 calls)
     ffts         :      1.85s CPU      0.15s WALL (      33 calls)
     fftw         :   4832.32s CPU    204.07s WALL (   56728 calls)
     interpolate  :      4.12s CPU      0.39s WALL (      17 calls)

     Parallel routines

     PAW routines
     PAW_pot      :     21.40s CPU      0.95s WALL (      17 calls)
     PAW_symme    :      0.01s CPU      0.00s WALL (      33 calls)

     PWSCF        :      2h23m CPU   9m29.37s WALL


   This run was terminated on:  19:52: 9  14Jun2024            

=------------------------------------------------------------------------------=
   JOB DONE.
=------------------------------------------------------------------------------=
