
     Program PWSCF v.7.3.1 starts on 13Jun2024 at 17:15:23 

     This program is part of the open-source Quantum ESPRESSO suite
     for quantum simulation of materials; please cite
         "P. Giannozzi et al., J. Phys.:Condens. Matter 21 395502 (2009);
         "P. Giannozzi et al., J. Phys.:Condens. Matter 29 465901 (2017);
         "P. Giannozzi et al., J. Chem. Phys. 152 154105 (2020);
          URL http://www.quantum-espresso.org", 
     in publications or presentations arising from this work. More details at
     http://www.quantum-espresso.org/quote

     Parallel version (MPI & OpenMP), running on      24 processor cores
     Number of MPI processes:                 1
     Threads/MPI process:                    24

     MPI processes distributed on     1 nodes
     4950 MiB available memory on the printing compute node when the environment starts

     Waiting for input...
     Reading input from standard input

     Current dimensions of program PWSCF are:
     Max number of different atomic species (ntypx) = 10
     Max number of k-points (npk) =  40000
     Max angular momentum in pseudopotentials (lmaxx) =  4
     file O.pbe-n-kjpaw_psl.0.1.UPF: wavefunction(s)  2P renormalized
     Message from routine setup:
     using ibrav=0 with symmetry is DISCOURAGED, use correct ibrav instead

     Subspace diagonalization in iterative solution of the eigenvalue problem:
     a serial algorithm will be used


     G-vector sticks info
     --------------------
     sticks:   dense  smooth     PW     G-vecs:    dense   smooth      PW
     Sum         829     411    137                17765     6317    1201

     Using Slab Decomposition



     bravais-lattice index     =            0
     lattice parameter (alat)  =       5.0879  a.u.
     unit-cell volume          =     131.5765 (a.u.)^3
     number of atoms/cell      =            2
     number of atomic types    =            2
     number of electrons       =        26.00
     number of Kohn-Sham states=           17
     kinetic-energy cutoff     =      50.0000  Ry
     charge density cutoff     =     400.0000  Ry
     scf convergence threshold =      1.0E-08
     mixing beta               =       0.4000
     number of iterations used =            8  plain     mixing
     Exchange-correlation= SLA  PW   PBE  PBE
                           (   1   4   3   4   0   0   0)

     celldm(1)=   5.087888  celldm(2)=   0.000000  celldm(3)=   0.000000
     celldm(4)=   0.000000  celldm(5)=   0.000000  celldm(6)=   0.000000

     crystal axes: (cart. coord. in units of alat)
               a(1) = (   0.999800   0.019996   0.000000 )  
               a(2) = (   0.019996   0.999800   0.000000 )  
               a(3) = (   0.000000   0.000000   0.999800 )  

     reciprocal axes: (cart. coord. in units 2 pi/alat)
               b(1) = (  1.000600 -0.020012  0.000000 )  
               b(2) = ( -0.020012  1.000600  0.000000 )  
               b(3) = (  0.000000  0.000000  1.000200 )  


     PseudoPot. # 1 for O  read from file:
     ../SSSP_1.3.0_PBE_efficiency/O.pbe-n-kjpaw_psl.0.1.UPF
     MD5 check sum: 0234752ac141de4415c5fc33072bef88
     Pseudo is Projector augmented-wave + core cor, Zval =  6.0
     Generated using "atomic" code by A. Dal Corso  v.5.0.99 svn rev. 10869
     Shape of augmentation charge: BESSEL
     Using radial grid of 1095 points,  4 beta functions with: 
                l(1) =   0
                l(2) =   0
                l(3) =   1
                l(4) =   1
     Q(r) pseudized with 0 coefficients 


     PseudoPot. # 2 for Zn read from file:
     ../SSSP_1.3.0_PBE_efficiency/Zn_pbe_v1.uspp.F.UPF
     MD5 check sum: df62231357ef9e81f77b2b3087fa5675
     Pseudo is Ultrasoft, Zval = 20.0
     Generated by new atomic code, or converted to UPF format
     Using radial grid of  943 points,  6 beta functions with: 
                l(1) =   0
                l(2) =   0
                l(3) =   1
                l(4) =   1
                l(5) =   2
                l(6) =   2
     Q(r) pseudized with  8 coefficients,  rinner =    1.100   1.100   1.100
                                                       1.100   1.100

     atomic species   valence    mass     pseudopotential
     O                 6.00    15.99940     O ( 1.00)
     Zn               20.00    65.38000     Zn( 1.00)

      8 Sym. Ops., with inversion, found


                                    s                        frac. trans.

      isym =  1     identity                                     

 cryst.   s( 1) = (     1          0          0      )
                  (     0          1          0      )
                  (     0          0          1      )

 cart.    s( 1) = (  1.0000000  0.0000000  0.0000000 )
                  (  0.0000000  1.0000000  0.0000000 )
                  (  0.0000000  0.0000000  1.0000000 )


      isym =  2     180 deg rotation - cart. axis [0,0,1]        

 cryst.   s( 2) = (    -1          0          0      )
                  (     0         -1          0      )
                  (     0          0          1      )

 cart.    s( 2) = ( -1.0000000  0.0000000  0.0000000 )
                  (  0.0000000 -1.0000000  0.0000000 )
                  (  0.0000000  0.0000000  1.0000000 )


      isym =  3     180 deg rotation - cart. axis [1,1,0]        

 cryst.   s( 3) = (     0          1          0      )
                  (     1          0          0      )
                  (     0          0         -1      )

 cart.    s( 3) = (  0.0000000  1.0000000  0.0000000 )
                  (  1.0000000  0.0000000  0.0000000 )
                  (  0.0000000  0.0000000 -1.0000000 )


      isym =  4     180 deg rotation - cart. axis [1,-1,0]       

 cryst.   s( 4) = (     0         -1          0      )
                  (    -1          0          0      )
                  (     0          0         -1      )

 cart.    s( 4) = (  0.0000000 -1.0000000  0.0000000 )
                  ( -1.0000000  0.0000000  0.0000000 )
                  (  0.0000000  0.0000000 -1.0000000 )


      isym =  5     inversion                                    

 cryst.   s( 5) = (    -1          0          0      )
                  (     0         -1          0      )
                  (     0          0         -1      )

 cart.    s( 5) = ( -1.0000000  0.0000000  0.0000000 )
                  (  0.0000000 -1.0000000  0.0000000 )
                  (  0.0000000  0.0000000 -1.0000000 )


      isym =  6     inv. 180 deg rotation - cart. axis [0,0,1]   

 cryst.   s( 6) = (     1          0          0      )
                  (     0          1          0      )
                  (     0          0         -1      )

 cart.    s( 6) = (  1.0000000  0.0000000  0.0000000 )
                  (  0.0000000  1.0000000  0.0000000 )
                  (  0.0000000  0.0000000 -1.0000000 )


      isym =  7     inv. 180 deg rotation - cart. axis [1,1,0]   

 cryst.   s( 7) = (     0         -1          0      )
                  (    -1          0          0      )
                  (     0          0          1      )

 cart.    s( 7) = (  0.0000000 -1.0000000  0.0000000 )
                  ( -1.0000000  0.0000000  0.0000000 )
                  (  0.0000000  0.0000000  1.0000000 )


      isym =  8     inv. 180 deg rotation - cart. axis [1,-1,0]  

 cryst.   s( 8) = (     0          1          0      )
                  (     1          0          0      )
                  (     0          0          1      )

 cart.    s( 8) = (  0.0000000  1.0000000  0.0000000 )
                  (  1.0000000  0.0000000  0.0000000 )
                  (  0.0000000  0.0000000  1.0000000 )


   Cartesian axes

     site n.     atom                  positions (alat units)
         1        Zn     tau(   1) = (   0.0000000   0.0000000   0.0000000  )
         2        O      tau(   2) = (   0.5098980   0.5098980   0.4999000  )

   Crystallographic axes

     site n.     atom                  positions (cryst. coord.)
         1        Zn     tau(   1) = (  0.0000000  0.0000000  0.0000000  )
         2        O      tau(   2) = (  0.5000000  0.5000000  0.5000000  )

     number of k points=   301  Marzari-Vanderbilt smearing, width (Ry)=  0.0147
                       cart. coord. in units 2pi/alat
        k(    1) = (   0.0000000   0.0000000   0.0000000), wk =   0.0011574
        k(    2) = (   0.0000000   0.0000000   0.0833500), wk =   0.0023148
        k(    3) = (   0.0000000   0.0000000   0.1667000), wk =   0.0023148
        k(    4) = (   0.0000000   0.0000000   0.2500500), wk =   0.0023148
        k(    5) = (   0.0000000   0.0000000   0.3334000), wk =   0.0023148
        k(    6) = (   0.0000000   0.0000000   0.4167500), wk =   0.0023148
        k(    7) = (   0.0000000   0.0000000  -0.5001000), wk =   0.0011574
        k(    8) = (  -0.0016677   0.0833834   0.0000000), wk =   0.0046296
        k(    9) = (  -0.0016677   0.0833834   0.0833500), wk =   0.0092593
        k(   10) = (  -0.0016677   0.0833834   0.1667000), wk =   0.0092593
        k(   11) = (  -0.0016677   0.0833834   0.2500500), wk =   0.0092593
        k(   12) = (  -0.0016677   0.0833834   0.3334000), wk =   0.0092593
        k(   13) = (  -0.0016677   0.0833834   0.4167500), wk =   0.0092593
        k(   14) = (  -0.0016677   0.0833834  -0.5001000), wk =   0.0046296
        k(   15) = (  -0.0033353   0.1667667   0.0000000), wk =   0.0046296
        k(   16) = (  -0.0033353   0.1667667   0.0833500), wk =   0.0092593
        k(   17) = (  -0.0033353   0.1667667   0.1667000), wk =   0.0092593
        k(   18) = (  -0.0033353   0.1667667   0.2500500), wk =   0.0092593
        k(   19) = (  -0.0033353   0.1667667   0.3334000), wk =   0.0092593
        k(   20) = (  -0.0033353   0.1667667   0.4167500), wk =   0.0092593
        k(   21) = (  -0.0033353   0.1667667  -0.5001000), wk =   0.0046296
        k(   22) = (  -0.0050030   0.2501501   0.0000000), wk =   0.0046296
        k(   23) = (  -0.0050030   0.2501501   0.0833500), wk =   0.0092593
        k(   24) = (  -0.0050030   0.2501501   0.1667000), wk =   0.0092593
        k(   25) = (  -0.0050030   0.2501501   0.2500500), wk =   0.0092593
        k(   26) = (  -0.0050030   0.2501501   0.3334000), wk =   0.0092593
        k(   27) = (  -0.0050030   0.2501501   0.4167500), wk =   0.0092593
        k(   28) = (  -0.0050030   0.2501501  -0.5001000), wk =   0.0046296
        k(   29) = (  -0.0066707   0.3335334   0.0000000), wk =   0.0046296
        k(   30) = (  -0.0066707   0.3335334   0.0833500), wk =   0.0092593
        k(   31) = (  -0.0066707   0.3335334   0.1667000), wk =   0.0092593
        k(   32) = (  -0.0066707   0.3335334   0.2500500), wk =   0.0092593
        k(   33) = (  -0.0066707   0.3335334   0.3334000), wk =   0.0092593
        k(   34) = (  -0.0066707   0.3335334   0.4167500), wk =   0.0092593
        k(   35) = (  -0.0066707   0.3335334  -0.5001000), wk =   0.0046296
        k(   36) = (  -0.0083383   0.4169168   0.0000000), wk =   0.0046296
        k(   37) = (  -0.0083383   0.4169168   0.0833500), wk =   0.0092593
        k(   38) = (  -0.0083383   0.4169168   0.1667000), wk =   0.0092593
        k(   39) = (  -0.0083383   0.4169168   0.2500500), wk =   0.0092593
        k(   40) = (  -0.0083383   0.4169168   0.3334000), wk =   0.0092593
        k(   41) = (  -0.0083383   0.4169168   0.4167500), wk =   0.0092593
        k(   42) = (  -0.0083383   0.4169168  -0.5001000), wk =   0.0046296
        k(   43) = (   0.0100060  -0.5003001   0.0000000), wk =   0.0023148
        k(   44) = (   0.0100060  -0.5003001   0.0833500), wk =   0.0046296
        k(   45) = (   0.0100060  -0.5003001   0.1667000), wk =   0.0046296
        k(   46) = (   0.0100060  -0.5003001   0.2500500), wk =   0.0046296
        k(   47) = (   0.0100060  -0.5003001   0.3334000), wk =   0.0046296
        k(   48) = (   0.0100060  -0.5003001   0.4167500), wk =   0.0046296
        k(   49) = (   0.0100060  -0.5003001  -0.5001000), wk =   0.0023148
        k(   50) = (   0.0817157   0.0817157   0.0000000), wk =   0.0023148
        k(   51) = (   0.0817157   0.0817157   0.0833500), wk =   0.0046296
        k(   52) = (   0.0817157   0.0817157   0.1667000), wk =   0.0046296
        k(   53) = (   0.0817157   0.0817157   0.2500500), wk =   0.0046296
        k(   54) = (   0.0817157   0.0817157   0.3334000), wk =   0.0046296
        k(   55) = (   0.0817157   0.0817157   0.4167500), wk =   0.0046296
        k(   56) = (   0.0817157   0.0817157  -0.5001000), wk =   0.0023148
        k(   57) = (   0.0800480   0.1650990   0.0000000), wk =   0.0046296
        k(   58) = (   0.0800480   0.1650990   0.0833500), wk =   0.0092593
        k(   59) = (   0.0800480   0.1650990   0.1667000), wk =   0.0092593
        k(   60) = (   0.0800480   0.1650990   0.2500500), wk =   0.0092593
        k(   61) = (   0.0800480   0.1650990   0.3334000), wk =   0.0092593
        k(   62) = (   0.0800480   0.1650990   0.4167500), wk =   0.0092593
        k(   63) = (   0.0800480   0.1650990  -0.5001000), wk =   0.0046296
        k(   64) = (   0.0783804   0.2484824   0.0000000), wk =   0.0046296
        k(   65) = (   0.0783804   0.2484824   0.0833500), wk =   0.0092593
        k(   66) = (   0.0783804   0.2484824   0.1667000), wk =   0.0092593
        k(   67) = (   0.0783804   0.2484824   0.2500500), wk =   0.0092593
        k(   68) = (   0.0783804   0.2484824   0.3334000), wk =   0.0092593
        k(   69) = (   0.0783804   0.2484824   0.4167500), wk =   0.0092593
        k(   70) = (   0.0783804   0.2484824  -0.5001000), wk =   0.0046296
        k(   71) = (   0.0767127   0.3318657   0.0000000), wk =   0.0046296
        k(   72) = (   0.0767127   0.3318657   0.0833500), wk =   0.0092593
        k(   73) = (   0.0767127   0.3318657   0.1667000), wk =   0.0092593
        k(   74) = (   0.0767127   0.3318657   0.2500500), wk =   0.0092593
        k(   75) = (   0.0767127   0.3318657   0.3334000), wk =   0.0092593
        k(   76) = (   0.0767127   0.3318657   0.4167500), wk =   0.0092593
        k(   77) = (   0.0767127   0.3318657  -0.5001000), wk =   0.0046296
        k(   78) = (   0.0750450   0.4152491   0.0000000), wk =   0.0046296
        k(   79) = (   0.0750450   0.4152491   0.0833500), wk =   0.0092593
        k(   80) = (   0.0750450   0.4152491   0.1667000), wk =   0.0092593
        k(   81) = (   0.0750450   0.4152491   0.2500500), wk =   0.0092593
        k(   82) = (   0.0750450   0.4152491   0.3334000), wk =   0.0092593
        k(   83) = (   0.0750450   0.4152491   0.4167500), wk =   0.0092593
        k(   84) = (   0.0750450   0.4152491  -0.5001000), wk =   0.0046296
        k(   85) = (   0.0933894  -0.5019678   0.0000000), wk =   0.0046296
        k(   86) = (   0.0933894  -0.5019678   0.0833500), wk =   0.0092593
        k(   87) = (   0.0933894  -0.5019678   0.1667000), wk =   0.0092593
        k(   88) = (   0.0933894  -0.5019678   0.2500500), wk =   0.0092593
        k(   89) = (   0.0933894  -0.5019678   0.3334000), wk =   0.0092593
        k(   90) = (   0.0933894  -0.5019678   0.4167500), wk =   0.0092593
        k(   91) = (   0.0933894  -0.5019678  -0.5001000), wk =   0.0046296
        k(   92) = (   0.0917217  -0.4185844   0.0000000), wk =   0.0046296
        k(   93) = (   0.0917217  -0.4185844   0.0833500), wk =   0.0092593
        k(   94) = (   0.0917217  -0.4185844   0.1667000), wk =   0.0092593
        k(   95) = (   0.0917217  -0.4185844   0.2500500), wk =   0.0092593
        k(   96) = (   0.0917217  -0.4185844   0.3334000), wk =   0.0092593
        k(   97) = (   0.0917217  -0.4185844   0.4167500), wk =   0.0092593
        k(   98) = (   0.0917217  -0.4185844  -0.5001000), wk =   0.0046296
        k(   99) = (   0.0900540  -0.3352011   0.0000000), wk =   0.0046296
        k(  100) = (   0.0900540  -0.3352011   0.0833500), wk =   0.0092593
        k(  101) = (   0.0900540  -0.3352011   0.1667000), wk =   0.0092593
        k(  102) = (   0.0900540  -0.3352011   0.2500500), wk =   0.0092593
        k(  103) = (   0.0900540  -0.3352011   0.3334000), wk =   0.0092593
        k(  104) = (   0.0900540  -0.3352011   0.4167500), wk =   0.0092593
        k(  105) = (   0.0900540  -0.3352011  -0.5001000), wk =   0.0046296
        k(  106) = (   0.0883864  -0.2518177   0.0000000), wk =   0.0046296
        k(  107) = (   0.0883864  -0.2518177   0.0833500), wk =   0.0092593
        k(  108) = (   0.0883864  -0.2518177   0.1667000), wk =   0.0092593
        k(  109) = (   0.0883864  -0.2518177   0.2500500), wk =   0.0092593
        k(  110) = (   0.0883864  -0.2518177   0.3334000), wk =   0.0092593
        k(  111) = (   0.0883864  -0.2518177   0.4167500), wk =   0.0092593
        k(  112) = (   0.0883864  -0.2518177  -0.5001000), wk =   0.0046296
        k(  113) = (   0.0867187  -0.1684344   0.0000000), wk =   0.0046296
        k(  114) = (   0.0867187  -0.1684344   0.0833500), wk =   0.0092593
        k(  115) = (   0.0867187  -0.1684344   0.1667000), wk =   0.0092593
        k(  116) = (   0.0867187  -0.1684344   0.2500500), wk =   0.0092593
        k(  117) = (   0.0867187  -0.1684344   0.3334000), wk =   0.0092593
        k(  118) = (   0.0867187  -0.1684344   0.4167500), wk =   0.0092593
        k(  119) = (   0.0867187  -0.1684344  -0.5001000), wk =   0.0046296
        k(  120) = (   0.0850510  -0.0850510   0.0000000), wk =   0.0023148
        k(  121) = (   0.0850510  -0.0850510   0.0833500), wk =   0.0046296
        k(  122) = (   0.0850510  -0.0850510   0.1667000), wk =   0.0046296
        k(  123) = (   0.0850510  -0.0850510   0.2500500), wk =   0.0046296
        k(  124) = (   0.0850510  -0.0850510   0.3334000), wk =   0.0046296
        k(  125) = (   0.0850510  -0.0850510   0.4167500), wk =   0.0046296
        k(  126) = (   0.0850510  -0.0850510  -0.5001000), wk =   0.0023148
        k(  127) = (   0.1634314   0.1634314   0.0000000), wk =   0.0023148
        k(  128) = (   0.1634314   0.1634314   0.0833500), wk =   0.0046296
        k(  129) = (   0.1634314   0.1634314   0.1667000), wk =   0.0046296
        k(  130) = (   0.1634314   0.1634314   0.2500500), wk =   0.0046296
        k(  131) = (   0.1634314   0.1634314   0.3334000), wk =   0.0046296
        k(  132) = (   0.1634314   0.1634314   0.4167500), wk =   0.0046296
        k(  133) = (   0.1634314   0.1634314  -0.5001000), wk =   0.0023148
        k(  134) = (   0.1617637   0.2468147   0.0000000), wk =   0.0046296
        k(  135) = (   0.1617637   0.2468147   0.0833500), wk =   0.0092593
        k(  136) = (   0.1617637   0.2468147   0.1667000), wk =   0.0092593
        k(  137) = (   0.1617637   0.2468147   0.2500500), wk =   0.0092593
        k(  138) = (   0.1617637   0.2468147   0.3334000), wk =   0.0092593
        k(  139) = (   0.1617637   0.2468147   0.4167500), wk =   0.0092593
        k(  140) = (   0.1617637   0.2468147  -0.5001000), wk =   0.0046296
        k(  141) = (   0.1600960   0.3301981   0.0000000), wk =   0.0046296
        k(  142) = (   0.1600960   0.3301981   0.0833500), wk =   0.0092593
        k(  143) = (   0.1600960   0.3301981   0.1667000), wk =   0.0092593
        k(  144) = (   0.1600960   0.3301981   0.2500500), wk =   0.0092593
        k(  145) = (   0.1600960   0.3301981   0.3334000), wk =   0.0092593
        k(  146) = (   0.1600960   0.3301981   0.4167500), wk =   0.0092593
        k(  147) = (   0.1600960   0.3301981  -0.5001000), wk =   0.0046296
        k(  148) = (   0.1584284   0.4135814   0.0000000), wk =   0.0046296
        k(  149) = (   0.1584284   0.4135814   0.0833500), wk =   0.0092593
        k(  150) = (   0.1584284   0.4135814   0.1667000), wk =   0.0092593
        k(  151) = (   0.1584284   0.4135814   0.2500500), wk =   0.0092593
        k(  152) = (   0.1584284   0.4135814   0.3334000), wk =   0.0092593
        k(  153) = (   0.1584284   0.4135814   0.4167500), wk =   0.0092593
        k(  154) = (   0.1584284   0.4135814  -0.5001000), wk =   0.0046296
        k(  155) = (   0.1767727  -0.5036354   0.0000000), wk =   0.0046296
        k(  156) = (   0.1767727  -0.5036354   0.0833500), wk =   0.0092593
        k(  157) = (   0.1767727  -0.5036354   0.1667000), wk =   0.0092593
        k(  158) = (   0.1767727  -0.5036354   0.2500500), wk =   0.0092593
        k(  159) = (   0.1767727  -0.5036354   0.3334000), wk =   0.0092593
        k(  160) = (   0.1767727  -0.5036354   0.4167500), wk =   0.0092593
        k(  161) = (   0.1767727  -0.5036354  -0.5001000), wk =   0.0046296
        k(  162) = (   0.1751050  -0.4202521   0.0000000), wk =   0.0046296
        k(  163) = (   0.1751050  -0.4202521   0.0833500), wk =   0.0092593
        k(  164) = (   0.1751050  -0.4202521   0.1667000), wk =   0.0092593
        k(  165) = (   0.1751050  -0.4202521   0.2500500), wk =   0.0092593
        k(  166) = (   0.1751050  -0.4202521   0.3334000), wk =   0.0092593
        k(  167) = (   0.1751050  -0.4202521   0.4167500), wk =   0.0092593
        k(  168) = (   0.1751050  -0.4202521  -0.5001000), wk =   0.0046296
        k(  169) = (   0.1734374  -0.3368687   0.0000000), wk =   0.0046296
        k(  170) = (   0.1734374  -0.3368687   0.0833500), wk =   0.0092593
        k(  171) = (   0.1734374  -0.3368687   0.1667000), wk =   0.0092593
        k(  172) = (   0.1734374  -0.3368687   0.2500500), wk =   0.0092593
        k(  173) = (   0.1734374  -0.3368687   0.3334000), wk =   0.0092593
        k(  174) = (   0.1734374  -0.3368687   0.4167500), wk =   0.0092593
        k(  175) = (   0.1734374  -0.3368687  -0.5001000), wk =   0.0046296
        k(  176) = (   0.1717697  -0.2534854   0.0000000), wk =   0.0046296
        k(  177) = (   0.1717697  -0.2534854   0.0833500), wk =   0.0092593
        k(  178) = (   0.1717697  -0.2534854   0.1667000), wk =   0.0092593
        k(  179) = (   0.1717697  -0.2534854   0.2500500), wk =   0.0092593
        k(  180) = (   0.1717697  -0.2534854   0.3334000), wk =   0.0092593
        k(  181) = (   0.1717697  -0.2534854   0.4167500), wk =   0.0092593
        k(  182) = (   0.1717697  -0.2534854  -0.5001000), wk =   0.0046296
        k(  183) = (   0.1701020  -0.1701020   0.0000000), wk =   0.0023148
        k(  184) = (   0.1701020  -0.1701020   0.0833500), wk =   0.0046296
        k(  185) = (   0.1701020  -0.1701020   0.1667000), wk =   0.0046296
        k(  186) = (   0.1701020  -0.1701020   0.2500500), wk =   0.0046296
        k(  187) = (   0.1701020  -0.1701020   0.3334000), wk =   0.0046296
        k(  188) = (   0.1701020  -0.1701020   0.4167500), wk =   0.0046296
        k(  189) = (   0.1701020  -0.1701020  -0.5001000), wk =   0.0023148
        k(  190) = (   0.2451471   0.2451471   0.0000000), wk =   0.0023148
        k(  191) = (   0.2451471   0.2451471   0.0833500), wk =   0.0046296
        k(  192) = (   0.2451471   0.2451471   0.1667000), wk =   0.0046296
        k(  193) = (   0.2451471   0.2451471   0.2500500), wk =   0.0046296
        k(  194) = (   0.2451471   0.2451471   0.3334000), wk =   0.0046296
        k(  195) = (   0.2451471   0.2451471   0.4167500), wk =   0.0046296
        k(  196) = (   0.2451471   0.2451471  -0.5001000), wk =   0.0023148
        k(  197) = (   0.2434794   0.3285304   0.0000000), wk =   0.0046296
        k(  198) = (   0.2434794   0.3285304   0.0833500), wk =   0.0092593
        k(  199) = (   0.2434794   0.3285304   0.1667000), wk =   0.0092593
        k(  200) = (   0.2434794   0.3285304   0.2500500), wk =   0.0092593
        k(  201) = (   0.2434794   0.3285304   0.3334000), wk =   0.0092593
        k(  202) = (   0.2434794   0.3285304   0.4167500), wk =   0.0092593
        k(  203) = (   0.2434794   0.3285304  -0.5001000), wk =   0.0046296
        k(  204) = (   0.2418117   0.4119138   0.0000000), wk =   0.0046296
        k(  205) = (   0.2418117   0.4119138   0.0833500), wk =   0.0092593
        k(  206) = (   0.2418117   0.4119138   0.1667000), wk =   0.0092593
        k(  207) = (   0.2418117   0.4119138   0.2500500), wk =   0.0092593
        k(  208) = (   0.2418117   0.4119138   0.3334000), wk =   0.0092593
        k(  209) = (   0.2418117   0.4119138   0.4167500), wk =   0.0092593
        k(  210) = (   0.2418117   0.4119138  -0.5001000), wk =   0.0046296
        k(  211) = (   0.2601561  -0.5053031   0.0000000), wk =   0.0046296
        k(  212) = (   0.2601561  -0.5053031   0.0833500), wk =   0.0092593
        k(  213) = (   0.2601561  -0.5053031   0.1667000), wk =   0.0092593
        k(  214) = (   0.2601561  -0.5053031   0.2500500), wk =   0.0092593
        k(  215) = (   0.2601561  -0.5053031   0.3334000), wk =   0.0092593
        k(  216) = (   0.2601561  -0.5053031   0.4167500), wk =   0.0092593
        k(  217) = (   0.2601561  -0.5053031  -0.5001000), wk =   0.0046296
        k(  218) = (   0.2584884  -0.4219198   0.0000000), wk =   0.0046296
        k(  219) = (   0.2584884  -0.4219198   0.0833500), wk =   0.0092593
        k(  220) = (   0.2584884  -0.4219198   0.1667000), wk =   0.0092593
        k(  221) = (   0.2584884  -0.4219198   0.2500500), wk =   0.0092593
        k(  222) = (   0.2584884  -0.4219198   0.3334000), wk =   0.0092593
        k(  223) = (   0.2584884  -0.4219198   0.4167500), wk =   0.0092593
        k(  224) = (   0.2584884  -0.4219198  -0.5001000), wk =   0.0046296
        k(  225) = (   0.2568207  -0.3385364   0.0000000), wk =   0.0046296
        k(  226) = (   0.2568207  -0.3385364   0.0833500), wk =   0.0092593
        k(  227) = (   0.2568207  -0.3385364   0.1667000), wk =   0.0092593
        k(  228) = (   0.2568207  -0.3385364   0.2500500), wk =   0.0092593
        k(  229) = (   0.2568207  -0.3385364   0.3334000), wk =   0.0092593
        k(  230) = (   0.2568207  -0.3385364   0.4167500), wk =   0.0092593
        k(  231) = (   0.2568207  -0.3385364  -0.5001000), wk =   0.0046296
        k(  232) = (   0.2551531  -0.2551531   0.0000000), wk =   0.0023148
        k(  233) = (   0.2551531  -0.2551531   0.0833500), wk =   0.0046296
        k(  234) = (   0.2551531  -0.2551531   0.1667000), wk =   0.0046296
        k(  235) = (   0.2551531  -0.2551531   0.2500500), wk =   0.0046296
        k(  236) = (   0.2551531  -0.2551531   0.3334000), wk =   0.0046296
        k(  237) = (   0.2551531  -0.2551531   0.4167500), wk =   0.0046296
        k(  238) = (   0.2551531  -0.2551531  -0.5001000), wk =   0.0023148
        k(  239) = (   0.3268627   0.3268627   0.0000000), wk =   0.0023148
        k(  240) = (   0.3268627   0.3268627   0.0833500), wk =   0.0046296
        k(  241) = (   0.3268627   0.3268627   0.1667000), wk =   0.0046296
        k(  242) = (   0.3268627   0.3268627   0.2500500), wk =   0.0046296
        k(  243) = (   0.3268627   0.3268627   0.3334000), wk =   0.0046296
        k(  244) = (   0.3268627   0.3268627   0.4167500), wk =   0.0046296
        k(  245) = (   0.3268627   0.3268627  -0.5001000), wk =   0.0023148
        k(  246) = (   0.3251951   0.4102461   0.0000000), wk =   0.0046296
        k(  247) = (   0.3251951   0.4102461   0.0833500), wk =   0.0092593
        k(  248) = (   0.3251951   0.4102461   0.1667000), wk =   0.0092593
        k(  249) = (   0.3251951   0.4102461   0.2500500), wk =   0.0092593
        k(  250) = (   0.3251951   0.4102461   0.3334000), wk =   0.0092593
        k(  251) = (   0.3251951   0.4102461   0.4167500), wk =   0.0092593
        k(  252) = (   0.3251951   0.4102461  -0.5001000), wk =   0.0046296
        k(  253) = (   0.3435394  -0.5069708   0.0000000), wk =   0.0046296
        k(  254) = (   0.3435394  -0.5069708   0.0833500), wk =   0.0092593
        k(  255) = (   0.3435394  -0.5069708   0.1667000), wk =   0.0092593
        k(  256) = (   0.3435394  -0.5069708   0.2500500), wk =   0.0092593
        k(  257) = (   0.3435394  -0.5069708   0.3334000), wk =   0.0092593
        k(  258) = (   0.3435394  -0.5069708   0.4167500), wk =   0.0092593
        k(  259) = (   0.3435394  -0.5069708  -0.5001000), wk =   0.0046296
        k(  260) = (   0.3418717  -0.4235874   0.0000000), wk =   0.0046296
        k(  261) = (   0.3418717  -0.4235874   0.0833500), wk =   0.0092593
        k(  262) = (   0.3418717  -0.4235874   0.1667000), wk =   0.0092593
        k(  263) = (   0.3418717  -0.4235874   0.2500500), wk =   0.0092593
        k(  264) = (   0.3418717  -0.4235874   0.3334000), wk =   0.0092593
        k(  265) = (   0.3418717  -0.4235874   0.4167500), wk =   0.0092593
        k(  266) = (   0.3418717  -0.4235874  -0.5001000), wk =   0.0046296
        k(  267) = (   0.3402041  -0.3402041   0.0000000), wk =   0.0023148
        k(  268) = (   0.3402041  -0.3402041   0.0833500), wk =   0.0046296
        k(  269) = (   0.3402041  -0.3402041   0.1667000), wk =   0.0046296
        k(  270) = (   0.3402041  -0.3402041   0.2500500), wk =   0.0046296
        k(  271) = (   0.3402041  -0.3402041   0.3334000), wk =   0.0046296
        k(  272) = (   0.3402041  -0.3402041   0.4167500), wk =   0.0046296
        k(  273) = (   0.3402041  -0.3402041  -0.5001000), wk =   0.0023148
        k(  274) = (   0.4085784   0.4085784   0.0000000), wk =   0.0023148
        k(  275) = (   0.4085784   0.4085784   0.0833500), wk =   0.0046296
        k(  276) = (   0.4085784   0.4085784   0.1667000), wk =   0.0046296
        k(  277) = (   0.4085784   0.4085784   0.2500500), wk =   0.0046296
        k(  278) = (   0.4085784   0.4085784   0.3334000), wk =   0.0046296
        k(  279) = (   0.4085784   0.4085784   0.4167500), wk =   0.0046296
        k(  280) = (   0.4085784   0.4085784  -0.5001000), wk =   0.0023148
        k(  281) = (   0.4269228  -0.5086384   0.0000000), wk =   0.0046296
        k(  282) = (   0.4269228  -0.5086384   0.0833500), wk =   0.0092593
        k(  283) = (   0.4269228  -0.5086384   0.1667000), wk =   0.0092593
        k(  284) = (   0.4269228  -0.5086384   0.2500500), wk =   0.0092593
        k(  285) = (   0.4269228  -0.5086384   0.3334000), wk =   0.0092593
        k(  286) = (   0.4269228  -0.5086384   0.4167500), wk =   0.0092593
        k(  287) = (   0.4269228  -0.5086384  -0.5001000), wk =   0.0046296
        k(  288) = (   0.4252551  -0.4252551   0.0000000), wk =   0.0023148
        k(  289) = (   0.4252551  -0.4252551   0.0833500), wk =   0.0046296
        k(  290) = (   0.4252551  -0.4252551   0.1667000), wk =   0.0046296
        k(  291) = (   0.4252551  -0.4252551   0.2500500), wk =   0.0046296
        k(  292) = (   0.4252551  -0.4252551   0.3334000), wk =   0.0046296
        k(  293) = (   0.4252551  -0.4252551   0.4167500), wk =   0.0046296
        k(  294) = (   0.4252551  -0.4252551  -0.5001000), wk =   0.0023148
        k(  295) = (  -0.4902941  -0.4902941   0.0000000), wk =   0.0011574
        k(  296) = (  -0.4902941  -0.4902941   0.0833500), wk =   0.0023148
        k(  297) = (  -0.4902941  -0.4902941   0.1667000), wk =   0.0023148
        k(  298) = (  -0.4902941  -0.4902941   0.2500500), wk =   0.0023148
        k(  299) = (  -0.4902941  -0.4902941   0.3334000), wk =   0.0023148
        k(  300) = (  -0.4902941  -0.4902941   0.4167500), wk =   0.0023148
        k(  301) = (  -0.4902941  -0.4902941  -0.5001000), wk =   0.0011574

                       cryst. coord.
        k(    1) = (   0.0000000   0.0000000   0.0000000), wk =   0.0011574
        k(    2) = (   0.0000000   0.0000000   0.0833333), wk =   0.0023148
        k(    3) = (   0.0000000   0.0000000   0.1666667), wk =   0.0023148
        k(    4) = (   0.0000000   0.0000000   0.2500000), wk =   0.0023148
        k(    5) = (   0.0000000   0.0000000   0.3333333), wk =   0.0023148
        k(    6) = (   0.0000000   0.0000000   0.4166667), wk =   0.0023148
        k(    7) = (   0.0000000   0.0000000  -0.5000000), wk =   0.0011574
        k(    8) = (   0.0000000   0.0833333   0.0000000), wk =   0.0046296
        k(    9) = (   0.0000000   0.0833333   0.0833333), wk =   0.0092593
        k(   10) = (   0.0000000   0.0833333   0.1666667), wk =   0.0092593
        k(   11) = (   0.0000000   0.0833333   0.2500000), wk =   0.0092593
        k(   12) = (   0.0000000   0.0833333   0.3333333), wk =   0.0092593
        k(   13) = (   0.0000000   0.0833333   0.4166667), wk =   0.0092593
        k(   14) = (   0.0000000   0.0833333  -0.5000000), wk =   0.0046296
        k(   15) = (   0.0000000   0.1666667   0.0000000), wk =   0.0046296
        k(   16) = (   0.0000000   0.1666667   0.0833333), wk =   0.0092593
        k(   17) = (   0.0000000   0.1666667   0.1666667), wk =   0.0092593
        k(   18) = (   0.0000000   0.1666667   0.2500000), wk =   0.0092593
        k(   19) = (   0.0000000   0.1666667   0.3333333), wk =   0.0092593
        k(   20) = (   0.0000000   0.1666667   0.4166667), wk =   0.0092593
        k(   21) = (   0.0000000   0.1666667  -0.5000000), wk =   0.0046296
        k(   22) = (   0.0000000   0.2500000   0.0000000), wk =   0.0046296
        k(   23) = (   0.0000000   0.2500000   0.0833333), wk =   0.0092593
        k(   24) = (   0.0000000   0.2500000   0.1666667), wk =   0.0092593
        k(   25) = (   0.0000000   0.2500000   0.2500000), wk =   0.0092593
        k(   26) = (   0.0000000   0.2500000   0.3333333), wk =   0.0092593
        k(   27) = (   0.0000000   0.2500000   0.4166667), wk =   0.0092593
        k(   28) = (   0.0000000   0.2500000  -0.5000000), wk =   0.0046296
        k(   29) = (   0.0000000   0.3333333   0.0000000), wk =   0.0046296
        k(   30) = (   0.0000000   0.3333333   0.0833333), wk =   0.0092593
        k(   31) = (   0.0000000   0.3333333   0.1666667), wk =   0.0092593
        k(   32) = (   0.0000000   0.3333333   0.2500000), wk =   0.0092593
        k(   33) = (   0.0000000   0.3333333   0.3333333), wk =   0.0092593
        k(   34) = (   0.0000000   0.3333333   0.4166667), wk =   0.0092593
        k(   35) = (   0.0000000   0.3333333  -0.5000000), wk =   0.0046296
        k(   36) = (   0.0000000   0.4166667   0.0000000), wk =   0.0046296
        k(   37) = (   0.0000000   0.4166667   0.0833333), wk =   0.0092593
        k(   38) = (   0.0000000   0.4166667   0.1666667), wk =   0.0092593
        k(   39) = (   0.0000000   0.4166667   0.2500000), wk =   0.0092593
        k(   40) = (   0.0000000   0.4166667   0.3333333), wk =   0.0092593
        k(   41) = (   0.0000000   0.4166667   0.4166667), wk =   0.0092593
        k(   42) = (   0.0000000   0.4166667  -0.5000000), wk =   0.0046296
        k(   43) = (   0.0000000  -0.5000000   0.0000000), wk =   0.0023148
        k(   44) = (   0.0000000  -0.5000000   0.0833333), wk =   0.0046296
        k(   45) = (   0.0000000  -0.5000000   0.1666667), wk =   0.0046296
        k(   46) = (   0.0000000  -0.5000000   0.2500000), wk =   0.0046296
        k(   47) = (   0.0000000  -0.5000000   0.3333333), wk =   0.0046296
        k(   48) = (   0.0000000  -0.5000000   0.4166667), wk =   0.0046296
        k(   49) = (   0.0000000  -0.5000000  -0.5000000), wk =   0.0023148
        k(   50) = (   0.0833333   0.0833333   0.0000000), wk =   0.0023148
        k(   51) = (   0.0833333   0.0833333   0.0833333), wk =   0.0046296
        k(   52) = (   0.0833333   0.0833333   0.1666667), wk =   0.0046296
        k(   53) = (   0.0833333   0.0833333   0.2500000), wk =   0.0046296
        k(   54) = (   0.0833333   0.0833333   0.3333333), wk =   0.0046296
        k(   55) = (   0.0833333   0.0833333   0.4166667), wk =   0.0046296
        k(   56) = (   0.0833333   0.0833333  -0.5000000), wk =   0.0023148
        k(   57) = (   0.0833333   0.1666667   0.0000000), wk =   0.0046296
        k(   58) = (   0.0833333   0.1666667   0.0833333), wk =   0.0092593
        k(   59) = (   0.0833333   0.1666667   0.1666667), wk =   0.0092593
        k(   60) = (   0.0833333   0.1666667   0.2500000), wk =   0.0092593
        k(   61) = (   0.0833333   0.1666667   0.3333333), wk =   0.0092593
        k(   62) = (   0.0833333   0.1666667   0.4166667), wk =   0.0092593
        k(   63) = (   0.0833333   0.1666667  -0.5000000), wk =   0.0046296
        k(   64) = (   0.0833333   0.2500000   0.0000000), wk =   0.0046296
        k(   65) = (   0.0833333   0.2500000   0.0833333), wk =   0.0092593
        k(   66) = (   0.0833333   0.2500000   0.1666667), wk =   0.0092593
        k(   67) = (   0.0833333   0.2500000   0.2500000), wk =   0.0092593
        k(   68) = (   0.0833333   0.2500000   0.3333333), wk =   0.0092593
        k(   69) = (   0.0833333   0.2500000   0.4166667), wk =   0.0092593
        k(   70) = (   0.0833333   0.2500000  -0.5000000), wk =   0.0046296
        k(   71) = (   0.0833333   0.3333333   0.0000000), wk =   0.0046296
        k(   72) = (   0.0833333   0.3333333   0.0833333), wk =   0.0092593
        k(   73) = (   0.0833333   0.3333333   0.1666667), wk =   0.0092593
        k(   74) = (   0.0833333   0.3333333   0.2500000), wk =   0.0092593
        k(   75) = (   0.0833333   0.3333333   0.3333333), wk =   0.0092593
        k(   76) = (   0.0833333   0.3333333   0.4166667), wk =   0.0092593
        k(   77) = (   0.0833333   0.3333333  -0.5000000), wk =   0.0046296
        k(   78) = (   0.0833333   0.4166667   0.0000000), wk =   0.0046296
        k(   79) = (   0.0833333   0.4166667   0.0833333), wk =   0.0092593
        k(   80) = (   0.0833333   0.4166667   0.1666667), wk =   0.0092593
        k(   81) = (   0.0833333   0.4166667   0.2500000), wk =   0.0092593
        k(   82) = (   0.0833333   0.4166667   0.3333333), wk =   0.0092593
        k(   83) = (   0.0833333   0.4166667   0.4166667), wk =   0.0092593
        k(   84) = (   0.0833333   0.4166667  -0.5000000), wk =   0.0046296
        k(   85) = (   0.0833333  -0.5000000   0.0000000), wk =   0.0046296
        k(   86) = (   0.0833333  -0.5000000   0.0833333), wk =   0.0092593
        k(   87) = (   0.0833333  -0.5000000   0.1666667), wk =   0.0092593
        k(   88) = (   0.0833333  -0.5000000   0.2500000), wk =   0.0092593
        k(   89) = (   0.0833333  -0.5000000   0.3333333), wk =   0.0092593
        k(   90) = (   0.0833333  -0.5000000   0.4166667), wk =   0.0092593
        k(   91) = (   0.0833333  -0.5000000  -0.5000000), wk =   0.0046296
        k(   92) = (   0.0833333  -0.4166667   0.0000000), wk =   0.0046296
        k(   93) = (   0.0833333  -0.4166667   0.0833333), wk =   0.0092593
        k(   94) = (   0.0833333  -0.4166667   0.1666667), wk =   0.0092593
        k(   95) = (   0.0833333  -0.4166667   0.2500000), wk =   0.0092593
        k(   96) = (   0.0833333  -0.4166667   0.3333333), wk =   0.0092593
        k(   97) = (   0.0833333  -0.4166667   0.4166667), wk =   0.0092593
        k(   98) = (   0.0833333  -0.4166667  -0.5000000), wk =   0.0046296
        k(   99) = (   0.0833333  -0.3333333   0.0000000), wk =   0.0046296
        k(  100) = (   0.0833333  -0.3333333   0.0833333), wk =   0.0092593
        k(  101) = (   0.0833333  -0.3333333   0.1666667), wk =   0.0092593
        k(  102) = (   0.0833333  -0.3333333   0.2500000), wk =   0.0092593
        k(  103) = (   0.0833333  -0.3333333   0.3333333), wk =   0.0092593
        k(  104) = (   0.0833333  -0.3333333   0.4166667), wk =   0.0092593
        k(  105) = (   0.0833333  -0.3333333  -0.5000000), wk =   0.0046296
        k(  106) = (   0.0833333  -0.2500000   0.0000000), wk =   0.0046296
        k(  107) = (   0.0833333  -0.2500000   0.0833333), wk =   0.0092593
        k(  108) = (   0.0833333  -0.2500000   0.1666667), wk =   0.0092593
        k(  109) = (   0.0833333  -0.2500000   0.2500000), wk =   0.0092593
        k(  110) = (   0.0833333  -0.2500000   0.3333333), wk =   0.0092593
        k(  111) = (   0.0833333  -0.2500000   0.4166667), wk =   0.0092593
        k(  112) = (   0.0833333  -0.2500000  -0.5000000), wk =   0.0046296
        k(  113) = (   0.0833333  -0.1666667   0.0000000), wk =   0.0046296
        k(  114) = (   0.0833333  -0.1666667   0.0833333), wk =   0.0092593
        k(  115) = (   0.0833333  -0.1666667   0.1666667), wk =   0.0092593
        k(  116) = (   0.0833333  -0.1666667   0.2500000), wk =   0.0092593
        k(  117) = (   0.0833333  -0.1666667   0.3333333), wk =   0.0092593
        k(  118) = (   0.0833333  -0.1666667   0.4166667), wk =   0.0092593
        k(  119) = (   0.0833333  -0.1666667  -0.5000000), wk =   0.0046296
        k(  120) = (   0.0833333  -0.0833333   0.0000000), wk =   0.0023148
        k(  121) = (   0.0833333  -0.0833333   0.0833333), wk =   0.0046296
        k(  122) = (   0.0833333  -0.0833333   0.1666667), wk =   0.0046296
        k(  123) = (   0.0833333  -0.0833333   0.2500000), wk =   0.0046296
        k(  124) = (   0.0833333  -0.0833333   0.3333333), wk =   0.0046296
        k(  125) = (   0.0833333  -0.0833333   0.4166667), wk =   0.0046296
        k(  126) = (   0.0833333  -0.0833333  -0.5000000), wk =   0.0023148
        k(  127) = (   0.1666667   0.1666667   0.0000000), wk =   0.0023148
        k(  128) = (   0.1666667   0.1666667   0.0833333), wk =   0.0046296
        k(  129) = (   0.1666667   0.1666667   0.1666667), wk =   0.0046296
        k(  130) = (   0.1666667   0.1666667   0.2500000), wk =   0.0046296
        k(  131) = (   0.1666667   0.1666667   0.3333333), wk =   0.0046296
        k(  132) = (   0.1666667   0.1666667   0.4166667), wk =   0.0046296
        k(  133) = (   0.1666667   0.1666667  -0.5000000), wk =   0.0023148
        k(  134) = (   0.1666667   0.2500000   0.0000000), wk =   0.0046296
        k(  135) = (   0.1666667   0.2500000   0.0833333), wk =   0.0092593
        k(  136) = (   0.1666667   0.2500000   0.1666667), wk =   0.0092593
        k(  137) = (   0.1666667   0.2500000   0.2500000), wk =   0.0092593
        k(  138) = (   0.1666667   0.2500000   0.3333333), wk =   0.0092593
        k(  139) = (   0.1666667   0.2500000   0.4166667), wk =   0.0092593
        k(  140) = (   0.1666667   0.2500000  -0.5000000), wk =   0.0046296
        k(  141) = (   0.1666667   0.3333333   0.0000000), wk =   0.0046296
        k(  142) = (   0.1666667   0.3333333   0.0833333), wk =   0.0092593
        k(  143) = (   0.1666667   0.3333333   0.1666667), wk =   0.0092593
        k(  144) = (   0.1666667   0.3333333   0.2500000), wk =   0.0092593
        k(  145) = (   0.1666667   0.3333333   0.3333333), wk =   0.0092593
        k(  146) = (   0.1666667   0.3333333   0.4166667), wk =   0.0092593
        k(  147) = (   0.1666667   0.3333333  -0.5000000), wk =   0.0046296
        k(  148) = (   0.1666667   0.4166667   0.0000000), wk =   0.0046296
        k(  149) = (   0.1666667   0.4166667   0.0833333), wk =   0.0092593
        k(  150) = (   0.1666667   0.4166667   0.1666667), wk =   0.0092593
        k(  151) = (   0.1666667   0.4166667   0.2500000), wk =   0.0092593
        k(  152) = (   0.1666667   0.4166667   0.3333333), wk =   0.0092593
        k(  153) = (   0.1666667   0.4166667   0.4166667), wk =   0.0092593
        k(  154) = (   0.1666667   0.4166667  -0.5000000), wk =   0.0046296
        k(  155) = (   0.1666667  -0.5000000   0.0000000), wk =   0.0046296
        k(  156) = (   0.1666667  -0.5000000   0.0833333), wk =   0.0092593
        k(  157) = (   0.1666667  -0.5000000   0.1666667), wk =   0.0092593
        k(  158) = (   0.1666667  -0.5000000   0.2500000), wk =   0.0092593
        k(  159) = (   0.1666667  -0.5000000   0.3333333), wk =   0.0092593
        k(  160) = (   0.1666667  -0.5000000   0.4166667), wk =   0.0092593
        k(  161) = (   0.1666667  -0.5000000  -0.5000000), wk =   0.0046296
        k(  162) = (   0.1666667  -0.4166667   0.0000000), wk =   0.0046296
        k(  163) = (   0.1666667  -0.4166667   0.0833333), wk =   0.0092593
        k(  164) = (   0.1666667  -0.4166667   0.1666667), wk =   0.0092593
        k(  165) = (   0.1666667  -0.4166667   0.2500000), wk =   0.0092593
        k(  166) = (   0.1666667  -0.4166667   0.3333333), wk =   0.0092593
        k(  167) = (   0.1666667  -0.4166667   0.4166667), wk =   0.0092593
        k(  168) = (   0.1666667  -0.4166667  -0.5000000), wk =   0.0046296
        k(  169) = (   0.1666667  -0.3333333   0.0000000), wk =   0.0046296
        k(  170) = (   0.1666667  -0.3333333   0.0833333), wk =   0.0092593
        k(  171) = (   0.1666667  -0.3333333   0.1666667), wk =   0.0092593
        k(  172) = (   0.1666667  -0.3333333   0.2500000), wk =   0.0092593
        k(  173) = (   0.1666667  -0.3333333   0.3333333), wk =   0.0092593
        k(  174) = (   0.1666667  -0.3333333   0.4166667), wk =   0.0092593
        k(  175) = (   0.1666667  -0.3333333  -0.5000000), wk =   0.0046296
        k(  176) = (   0.1666667  -0.2500000   0.0000000), wk =   0.0046296
        k(  177) = (   0.1666667  -0.2500000   0.0833333), wk =   0.0092593
        k(  178) = (   0.1666667  -0.2500000   0.1666667), wk =   0.0092593
        k(  179) = (   0.1666667  -0.2500000   0.2500000), wk =   0.0092593
        k(  180) = (   0.1666667  -0.2500000   0.3333333), wk =   0.0092593
        k(  181) = (   0.1666667  -0.2500000   0.4166667), wk =   0.0092593
        k(  182) = (   0.1666667  -0.2500000  -0.5000000), wk =   0.0046296
        k(  183) = (   0.1666667  -0.1666667   0.0000000), wk =   0.0023148
        k(  184) = (   0.1666667  -0.1666667   0.0833333), wk =   0.0046296
        k(  185) = (   0.1666667  -0.1666667   0.1666667), wk =   0.0046296
        k(  186) = (   0.1666667  -0.1666667   0.2500000), wk =   0.0046296
        k(  187) = (   0.1666667  -0.1666667   0.3333333), wk =   0.0046296
        k(  188) = (   0.1666667  -0.1666667   0.4166667), wk =   0.0046296
        k(  189) = (   0.1666667  -0.1666667  -0.5000000), wk =   0.0023148
        k(  190) = (   0.2500000   0.2500000   0.0000000), wk =   0.0023148
        k(  191) = (   0.2500000   0.2500000   0.0833333), wk =   0.0046296
        k(  192) = (   0.2500000   0.2500000   0.1666667), wk =   0.0046296
        k(  193) = (   0.2500000   0.2500000   0.2500000), wk =   0.0046296
        k(  194) = (   0.2500000   0.2500000   0.3333333), wk =   0.0046296
        k(  195) = (   0.2500000   0.2500000   0.4166667), wk =   0.0046296
        k(  196) = (   0.2500000   0.2500000  -0.5000000), wk =   0.0023148
        k(  197) = (   0.2500000   0.3333333   0.0000000), wk =   0.0046296
        k(  198) = (   0.2500000   0.3333333   0.0833333), wk =   0.0092593
        k(  199) = (   0.2500000   0.3333333   0.1666667), wk =   0.0092593
        k(  200) = (   0.2500000   0.3333333   0.2500000), wk =   0.0092593
        k(  201) = (   0.2500000   0.3333333   0.3333333), wk =   0.0092593
        k(  202) = (   0.2500000   0.3333333   0.4166667), wk =   0.0092593
        k(  203) = (   0.2500000   0.3333333  -0.5000000), wk =   0.0046296
        k(  204) = (   0.2500000   0.4166667   0.0000000), wk =   0.0046296
        k(  205) = (   0.2500000   0.4166667   0.0833333), wk =   0.0092593
        k(  206) = (   0.2500000   0.4166667   0.1666667), wk =   0.0092593
        k(  207) = (   0.2500000   0.4166667   0.2500000), wk =   0.0092593
        k(  208) = (   0.2500000   0.4166667   0.3333333), wk =   0.0092593
        k(  209) = (   0.2500000   0.4166667   0.4166667), wk =   0.0092593
        k(  210) = (   0.2500000   0.4166667  -0.5000000), wk =   0.0046296
        k(  211) = (   0.2500000  -0.5000000   0.0000000), wk =   0.0046296
        k(  212) = (   0.2500000  -0.5000000   0.0833333), wk =   0.0092593
        k(  213) = (   0.2500000  -0.5000000   0.1666667), wk =   0.0092593
        k(  214) = (   0.2500000  -0.5000000   0.2500000), wk =   0.0092593
        k(  215) = (   0.2500000  -0.5000000   0.3333333), wk =   0.0092593
        k(  216) = (   0.2500000  -0.5000000   0.4166667), wk =   0.0092593
        k(  217) = (   0.2500000  -0.5000000  -0.5000000), wk =   0.0046296
        k(  218) = (   0.2500000  -0.4166667   0.0000000), wk =   0.0046296
        k(  219) = (   0.2500000  -0.4166667   0.0833333), wk =   0.0092593
        k(  220) = (   0.2500000  -0.4166667   0.1666667), wk =   0.0092593
        k(  221) = (   0.2500000  -0.4166667   0.2500000), wk =   0.0092593
        k(  222) = (   0.2500000  -0.4166667   0.3333333), wk =   0.0092593
        k(  223) = (   0.2500000  -0.4166667   0.4166667), wk =   0.0092593
        k(  224) = (   0.2500000  -0.4166667  -0.5000000), wk =   0.0046296
        k(  225) = (   0.2500000  -0.3333333   0.0000000), wk =   0.0046296
        k(  226) = (   0.2500000  -0.3333333   0.0833333), wk =   0.0092593
        k(  227) = (   0.2500000  -0.3333333   0.1666667), wk =   0.0092593
        k(  228) = (   0.2500000  -0.3333333   0.2500000), wk =   0.0092593
        k(  229) = (   0.2500000  -0.3333333   0.3333333), wk =   0.0092593
        k(  230) = (   0.2500000  -0.3333333   0.4166667), wk =   0.0092593
        k(  231) = (   0.2500000  -0.3333333  -0.5000000), wk =   0.0046296
        k(  232) = (   0.2500000  -0.2500000   0.0000000), wk =   0.0023148
        k(  233) = (   0.2500000  -0.2500000   0.0833333), wk =   0.0046296
        k(  234) = (   0.2500000  -0.2500000   0.1666667), wk =   0.0046296
        k(  235) = (   0.2500000  -0.2500000   0.2500000), wk =   0.0046296
        k(  236) = (   0.2500000  -0.2500000   0.3333333), wk =   0.0046296
        k(  237) = (   0.2500000  -0.2500000   0.4166667), wk =   0.0046296
        k(  238) = (   0.2500000  -0.2500000  -0.5000000), wk =   0.0023148
        k(  239) = (   0.3333333   0.3333333   0.0000000), wk =   0.0023148
        k(  240) = (   0.3333333   0.3333333   0.0833333), wk =   0.0046296
        k(  241) = (   0.3333333   0.3333333   0.1666667), wk =   0.0046296
        k(  242) = (   0.3333333   0.3333333   0.2500000), wk =   0.0046296
        k(  243) = (   0.3333333   0.3333333   0.3333333), wk =   0.0046296
        k(  244) = (   0.3333333   0.3333333   0.4166667), wk =   0.0046296
        k(  245) = (   0.3333333   0.3333333  -0.5000000), wk =   0.0023148
        k(  246) = (   0.3333333   0.4166667   0.0000000), wk =   0.0046296
        k(  247) = (   0.3333333   0.4166667   0.0833333), wk =   0.0092593
        k(  248) = (   0.3333333   0.4166667   0.1666667), wk =   0.0092593
        k(  249) = (   0.3333333   0.4166667   0.2500000), wk =   0.0092593
        k(  250) = (   0.3333333   0.4166667   0.3333333), wk =   0.0092593
        k(  251) = (   0.3333333   0.4166667   0.4166667), wk =   0.0092593
        k(  252) = (   0.3333333   0.4166667  -0.5000000), wk =   0.0046296
        k(  253) = (   0.3333333  -0.5000000   0.0000000), wk =   0.0046296
        k(  254) = (   0.3333333  -0.5000000   0.0833333), wk =   0.0092593
        k(  255) = (   0.3333333  -0.5000000   0.1666667), wk =   0.0092593
        k(  256) = (   0.3333333  -0.5000000   0.2500000), wk =   0.0092593
        k(  257) = (   0.3333333  -0.5000000   0.3333333), wk =   0.0092593
        k(  258) = (   0.3333333  -0.5000000   0.4166667), wk =   0.0092593
        k(  259) = (   0.3333333  -0.5000000  -0.5000000), wk =   0.0046296
        k(  260) = (   0.3333333  -0.4166667   0.0000000), wk =   0.0046296
        k(  261) = (   0.3333333  -0.4166667   0.0833333), wk =   0.0092593
        k(  262) = (   0.3333333  -0.4166667   0.1666667), wk =   0.0092593
        k(  263) = (   0.3333333  -0.4166667   0.2500000), wk =   0.0092593
        k(  264) = (   0.3333333  -0.4166667   0.3333333), wk =   0.0092593
        k(  265) = (   0.3333333  -0.4166667   0.4166667), wk =   0.0092593
        k(  266) = (   0.3333333  -0.4166667  -0.5000000), wk =   0.0046296
        k(  267) = (   0.3333333  -0.3333333   0.0000000), wk =   0.0023148
        k(  268) = (   0.3333333  -0.3333333   0.0833333), wk =   0.0046296
        k(  269) = (   0.3333333  -0.3333333   0.1666667), wk =   0.0046296
        k(  270) = (   0.3333333  -0.3333333   0.2500000), wk =   0.0046296
        k(  271) = (   0.3333333  -0.3333333   0.3333333), wk =   0.0046296
        k(  272) = (   0.3333333  -0.3333333   0.4166667), wk =   0.0046296
        k(  273) = (   0.3333333  -0.3333333  -0.5000000), wk =   0.0023148
        k(  274) = (   0.4166667   0.4166667   0.0000000), wk =   0.0023148
        k(  275) = (   0.4166667   0.4166667   0.0833333), wk =   0.0046296
        k(  276) = (   0.4166667   0.4166667   0.1666667), wk =   0.0046296
        k(  277) = (   0.4166667   0.4166667   0.2500000), wk =   0.0046296
        k(  278) = (   0.4166667   0.4166667   0.3333333), wk =   0.0046296
        k(  279) = (   0.4166667   0.4166667   0.4166667), wk =   0.0046296
        k(  280) = (   0.4166667   0.4166667  -0.5000000), wk =   0.0023148
        k(  281) = (   0.4166667  -0.5000000   0.0000000), wk =   0.0046296
        k(  282) = (   0.4166667  -0.5000000   0.0833333), wk =   0.0092593
        k(  283) = (   0.4166667  -0.5000000   0.1666667), wk =   0.0092593
        k(  284) = (   0.4166667  -0.5000000   0.2500000), wk =   0.0092593
        k(  285) = (   0.4166667  -0.5000000   0.3333333), wk =   0.0092593
        k(  286) = (   0.4166667  -0.5000000   0.4166667), wk =   0.0092593
        k(  287) = (   0.4166667  -0.5000000  -0.5000000), wk =   0.0046296
        k(  288) = (   0.4166667  -0.4166667   0.0000000), wk =   0.0023148
        k(  289) = (   0.4166667  -0.4166667   0.0833333), wk =   0.0046296
        k(  290) = (   0.4166667  -0.4166667   0.1666667), wk =   0.0046296
        k(  291) = (   0.4166667  -0.4166667   0.2500000), wk =   0.0046296
        k(  292) = (   0.4166667  -0.4166667   0.3333333), wk =   0.0046296
        k(  293) = (   0.4166667  -0.4166667   0.4166667), wk =   0.0046296
        k(  294) = (   0.4166667  -0.4166667  -0.5000000), wk =   0.0023148
        k(  295) = (  -0.5000000  -0.5000000   0.0000000), wk =   0.0011574
        k(  296) = (  -0.5000000  -0.5000000   0.0833333), wk =   0.0023148
        k(  297) = (  -0.5000000  -0.5000000   0.1666667), wk =   0.0023148
        k(  298) = (  -0.5000000  -0.5000000   0.2500000), wk =   0.0023148
        k(  299) = (  -0.5000000  -0.5000000   0.3333333), wk =   0.0023148
        k(  300) = (  -0.5000000  -0.5000000   0.4166667), wk =   0.0023148
        k(  301) = (  -0.5000000  -0.5000000  -0.5000000), wk =   0.0011574

     Dense  grid:    17765 G-vectors     FFT dimensions: (  36,  36,  36)

     Smooth grid:     6317 G-vectors     FFT dimensions: (  24,  24,  24)

     Dynamical RAM for                 wfc:       0.20 MB

     Dynamical RAM for     wfc (w. buffer):      61.57 MB

     Dynamical RAM for           str. fact:       0.54 MB

     Dynamical RAM for           local pot:       0.00 MB

     Dynamical RAM for          nlocal pot:       0.31 MB

     Dynamical RAM for                qrad:       3.21 MB

     Dynamical RAM for          rho,v,vnew:       1.88 MB

     Dynamical RAM for               rhoin:       0.63 MB

     Dynamical RAM for            rho*nmix:       4.34 MB

     Dynamical RAM for           G-vectors:       1.06 MB

     Dynamical RAM for          h,s,v(r/c):       0.05 MB

     Dynamical RAM for          <psi|beta>:       0.01 MB

     Dynamical RAM for                 psi:       0.41 MB

     Dynamical RAM for                hpsi:       0.41 MB

     Dynamical RAM for                spsi:       0.41 MB

     Dynamical RAM for      wfcinit/wfcrot:       0.41 MB

     Dynamical RAM for           addusdens:      50.69 MB

     Dynamical RAM for          addusforce:      50.83 MB

     Dynamical RAM for         addusstress:      54.49 MB

     Estimated static dynamical RAM per process >      71.80 MB

     Estimated max dynamical RAM per process >     130.63 MB

     Check: negative core charge=   -0.000003

     Initial potential from superposition of free atoms

     starting charge      25.9999, renormalised to      26.0000
     Starting wfcs are   17 randomized atomic wfcs
     Checking if some PAW data can be deallocated... 

     total cpu time spent up to now is        7.0 secs

     Self-consistent Calculation

     iteration #  1     ecut=    50.00 Ry     beta= 0.40
     Davidson diagonalization with overlap

---- Real-time Memory Report at c_bands before calling an iterative solver
           107 MiB given to the printing process from OS
             0 MiB allocation reported by mallinfo(arena+hblkhd)
          4873 MiB available memory on the node where the printing process lives
------------------
     ethr =  1.00E-02,  avg # of iterations =  2.9

     total cpu time spent up to now is       18.7 secs

     WARNING: integrated charge=    26.00001321, expected=    26.00000000

     total energy              =    -503.04063080 Ry
     estimated scf accuracy    <       0.46795234 Ry

     iteration #  2     ecut=    50.00 Ry     beta= 0.40
     Davidson diagonalization with overlap

---- Real-time Memory Report at c_bands before calling an iterative solver
           170 MiB given to the printing process from OS
             0 MiB allocation reported by mallinfo(arena+hblkhd)
          4905 MiB available memory on the node where the printing process lives
------------------
     ethr =  1.80E-03,  avg # of iterations =  2.1
     Minimization algorithm failed to find Fermi energy: reverting to bisection
     Possible cause: smearing is larger than the electronic band-gap.

     total cpu time spent up to now is       29.1 secs

     WARNING: integrated charge=    26.00000934, expected=    26.00000000

     total energy              =    -503.16742010 Ry
     estimated scf accuracy    <       0.07924110 Ry

     iteration #  3     ecut=    50.00 Ry     beta= 0.40
     Davidson diagonalization with overlap

---- Real-time Memory Report at c_bands before calling an iterative solver
           170 MiB given to the printing process from OS
             0 MiB allocation reported by mallinfo(arena+hblkhd)
          4904 MiB available memory on the node where the printing process lives
------------------
     ethr =  3.05E-04,  avg # of iterations =  2.2

     total cpu time spent up to now is       41.3 secs

     WARNING: integrated charge=    26.00480581, expected=    26.00000000

     total energy              =    -503.17174198 Ry
     estimated scf accuracy    <       0.00499947 Ry

     iteration #  4     ecut=    50.00 Ry     beta= 0.40
     Davidson diagonalization with overlap

---- Real-time Memory Report at c_bands before calling an iterative solver
           170 MiB given to the printing process from OS
             0 MiB allocation reported by mallinfo(arena+hblkhd)
          4898 MiB available memory on the node where the printing process lives
------------------
     ethr =  1.92E-05,  avg # of iterations =  2.2

     total cpu time spent up to now is       51.1 secs

     WARNING: integrated charge=    26.00801796, expected=    26.00000000

     total energy              =    -503.17176078 Ry
     estimated scf accuracy    <       0.00067006 Ry

     iteration #  5     ecut=    50.00 Ry     beta= 0.40
     Davidson diagonalization with overlap

---- Real-time Memory Report at c_bands before calling an iterative solver
           170 MiB given to the printing process from OS
             0 MiB allocation reported by mallinfo(arena+hblkhd)
          4898 MiB available memory on the node where the printing process lives
------------------
     ethr =  2.58E-06,  avg # of iterations =  2.3

     total cpu time spent up to now is       61.9 secs

     WARNING: integrated charge=    26.00852377, expected=    26.00000000

     total energy              =    -503.17178918 Ry
     estimated scf accuracy    <       0.00000761 Ry

     iteration #  6     ecut=    50.00 Ry     beta= 0.40
     Davidson diagonalization with overlap

---- Real-time Memory Report at c_bands before calling an iterative solver
           170 MiB given to the printing process from OS
             0 MiB allocation reported by mallinfo(arena+hblkhd)
          4897 MiB available memory on the node where the printing process lives
------------------
     ethr =  2.93E-08,  avg # of iterations =  2.1

     total cpu time spent up to now is       76.7 secs

     WARNING: integrated charge=    26.00872166, expected=    26.00000000

     total energy              =    -503.17179980 Ry
     estimated scf accuracy    <       0.00000815 Ry

     iteration #  7     ecut=    50.00 Ry     beta= 0.40
     Davidson diagonalization with overlap

---- Real-time Memory Report at c_bands before calling an iterative solver
           171 MiB given to the printing process from OS
             0 MiB allocation reported by mallinfo(arena+hblkhd)
          4899 MiB available memory on the node where the printing process lives
------------------
     ethr =  2.93E-08,  avg # of iterations =  1.8

     total cpu time spent up to now is       85.6 secs

     WARNING: integrated charge=    26.00877297, expected=    26.00000000

     total energy              =    -503.17179803 Ry
     estimated scf accuracy    <       0.00000076 Ry

     iteration #  8     ecut=    50.00 Ry     beta= 0.40
     Davidson diagonalization with overlap

---- Real-time Memory Report at c_bands before calling an iterative solver
           171 MiB given to the printing process from OS
             0 MiB allocation reported by mallinfo(arena+hblkhd)
          4897 MiB available memory on the node where the printing process lives
------------------
     ethr =  2.92E-09,  avg # of iterations =  2.0

     total cpu time spent up to now is       97.0 secs

     WARNING: integrated charge=    26.00875632, expected=    26.00000000

     total energy              =    -503.17179711 Ry
     estimated scf accuracy    <       0.00000003 Ry

     iteration #  9     ecut=    50.00 Ry     beta= 0.40
     Davidson diagonalization with overlap

---- Real-time Memory Report at c_bands before calling an iterative solver
           171 MiB given to the printing process from OS
             0 MiB allocation reported by mallinfo(arena+hblkhd)
          4897 MiB available memory on the node where the printing process lives
------------------
     ethr =  1.33E-10,  avg # of iterations =  2.0

     total cpu time spent up to now is      110.4 secs

     End of self-consistent calculation

          k = 0.0000 0.0000 0.0000 (   773 PWs)   bands (ev):

  -112.3437 -66.5358 -66.5243 -66.5148  -6.0121   5.9482   5.9511   7.0085
     7.0121   7.0154  11.1004  11.2284  11.3704  11.5577  26.4839  26.5027
    29.4094

     occupation numbers 
     1.0000   1.0000   1.0000   1.0000   1.0000   1.0000   1.0000   1.0000
     1.0000   1.0000   1.0000   1.0000   1.0000   1.0000   0.0000   0.0000
     0.0000

          k = 0.0000 0.0000 0.0833 (   779 PWs)   bands (ev):

  -112.3437 -66.5358 -66.5255 -66.5147  -5.9434   5.9599   5.9618   6.9599
     6.9757   7.0109  10.1286  11.1929  11.4426  12.6014  25.8191  26.6032
    29.3536

     occupation numbers 
     1.0000   1.0000   1.0000   1.0000   1.0000   1.0000   1.0000   1.0000
     1.0000   1.0000   1.0000   1.0000   1.0000   1.0411   0.0000   0.0000
     0.0000

          k = 0.0000 0.0000 0.1667 (   775 PWs)   bands (ev):

  -112.3434 -66.5355 -66.5287 -66.5144  -5.7477   5.9458   5.9840   6.8261
     6.8720   7.0173   8.9698  11.4401  11.6373  13.6900  24.4459  26.9063
    29.1760

     occupation numbers 
     1.0000   1.0000   1.0000   1.0000   1.0000   1.0000   1.0000   1.0000
     1.0000   1.0000   1.0000   1.0000   1.0000   0.0000   0.0000   0.0000
     0.0000

          k = 0.0000 0.0000 0.2500 (   783 PWs)   bands (ev):

  -112.3432 -66.5353 -66.5331 -66.5142  -5.4591   5.7172   6.0169   6.6601
     6.7399   7.0250   8.1625  11.7688  11.8999  14.7039  22.8555  27.4143
    28.8752

     occupation numbers 
     1.0000   1.0000   1.0000   1.0000   1.0000   1.0000   1.0000   1.0000
     1.0000   1.0000   1.0000   1.0000   1.0000   0.0000   0.0000   0.0000
     0.0000

          k = 0.0000 0.0000 0.3334 (   790 PWs)   bands (ev):

  -112.3429 -66.5374 -66.5350 -66.5140  -5.1399   5.1838   6.0499   6.5092
     6.6170   7.0317   7.8741  12.0926  12.1610  15.7045  21.2421  28.4642
    28.5141

     occupation numbers 
     1.0000   1.0000   1.0000   1.0000   1.0000   1.0000   1.0000   1.0000
     1.0000   1.0000   1.0000   1.0000   1.0000   0.0000   0.0000   0.0000
     0.0000

          k = 0.0000 0.0000 0.4167 (   794 PWs)   bands (ev):

  -112.3427 -66.5406 -66.5349 -66.5138  -4.8814   4.6554   6.0743   6.4065
     6.5318   7.0369   7.8633  12.3293  12.3528  16.7354  19.7559  28.0396
    28.2172

     occupation numbers 
     1.0000   1.0000   1.0000   1.0000   1.0000   1.0000   1.0000   1.0000
     1.0000   1.0000   1.0000   1.0003   1.0005   0.0000   0.0000   0.0000
     0.0000

          k = 0.0000 0.0000-0.5001 (   792 PWs)   bands (ev):

  -112.3426 -66.5418 -66.5347 -66.5137  -4.7803   4.4446   6.0832   6.3704
     6.5017   7.0391   7.8839  12.4162  12.4233  17.4656  18.8585  27.8820
    28.1028

     occupation numbers 
     1.0000   1.0000   1.0000   1.0000   1.0000   1.0000   1.0000   1.0000
     1.0000   1.0000   1.0000   1.0020   1.0024   0.0000   0.0000   0.0000
     0.0000

          k =-0.0017 0.0834 0.0000 (   774 PWs)   bands (ev):

  -112.3437 -66.5365 -66.5242 -66.5153  -5.9433   5.9572   5.9643   6.9637
     6.9678   7.0161  10.1184  11.3110  11.3313  12.6038  25.8160  26.5875
    29.5780

     occupation numbers 
     1.0000   1.0000   1.0000   1.0000   1.0000   1.0000   1.0000   1.0000
     1.0000   1.0000   1.0000   1.0000   1.0000   1.0421   0.0000   0.0000
     0.0000

          k =-0.0017 0.0834 0.0833 (   777 PWs)   bands (ev):

  -112.3436 -66.5364 -66.5254 -66.5152  -5.8757   5.9681   5.9808   6.9141
     6.9493   6.9934   9.8270  10.9932  11.4200  13.2248  25.6967  26.1613
    29.4582

     occupation numbers 
     1.0000   1.0000   1.0000   1.0000   1.0000   1.0000   1.0000   1.0000
     1.0000   1.0000   1.0000   1.0000   1.0000   0.0194   0.0000   0.0000
     0.0000

          k =-0.0017 0.0834 0.1667 (   784 PWs)   bands (ev):

  -112.3434 -66.5362 -66.5286 -66.5150  -5.6836   5.9643   6.0076   6.7802
     6.8571   6.9903   8.9715  11.0347  11.6155  14.1855  24.4932  26.1871
    29.3369

     occupation numbers 
     1.0000   1.0000   1.0000   1.0000   1.0000   1.0000   1.0000   1.0000
     1.0000   1.0000   1.0000   1.0000   1.0000   0.0000   0.0000   0.0000
     0.0000

          k =-0.0017 0.0834 0.2500 (   789 PWs)   bands (ev):

  -112.3431 -66.5359 -66.5330 -66.5148  -5.4007   5.7604   6.0382   6.6348
     6.7309   6.9997   8.2142  11.3151  11.8794  15.1259  22.8813  26.4448
    29.0226

     occupation numbers 
     1.0000   1.0000   1.0000   1.0000   1.0000   1.0000   1.0000   1.0000
     1.0000   1.0000   1.0000   1.0000   1.0000   0.0000   0.0000   0.0000
     0.0000

          k =-0.0017 0.0834 0.3334 (   791 PWs)   bands (ev):

  -112.3428 -66.5373 -66.5356 -66.5145  -5.0885   5.2600   6.0737   6.5109
     6.6171   7.0088   7.8999  11.6310  12.1431  16.0607  21.2383  26.7044
    28.6165

     occupation numbers 
     1.0000   1.0000   1.0000   1.0000   1.0000   1.0000   1.0000   1.0000
     1.0000   1.0000   1.0000   1.0000   1.0000   0.0000   0.0000   0.0000
     0.0000

          k =-0.0017 0.0834 0.4167 (   794 PWs)   bands (ev):

  -112.3426 -66.5405 -66.5355 -66.5142  -4.8364   4.7587   6.1021   6.4169
     6.5362   7.0158   7.8693  11.8741  12.3380  17.0541  19.7181  26.8522
    28.2988

     occupation numbers 
     1.0000   1.0000   1.0000   1.0000   1.0000   1.0000   1.0000   1.0000
     1.0000   1.0000   1.0000   1.0000   1.0003   0.0000   0.0000   0.0000
     0.0000

          k =-0.0017 0.0834-0.5001 (   796 PWs)   bands (ev):

  -112.3425 -66.5417 -66.5354 -66.5141  -4.7380   4.5572   6.1133   6.3816
     6.5065   7.0186   7.8848  11.9656  12.4100  17.8999  18.6780  26.8864
    28.1814

     occupation numbers 
     1.0000   1.0000   1.0000   1.0000   1.0000   1.0000   1.0000   1.0000
     1.0000   1.0000   1.0000   1.0000   1.0018   0.0000   0.0000   0.0000
     0.0000

          k =-0.0033 0.1668 0.0000 (   778 PWs)   bands (ev):

  -112.3435 -66.5382 -66.5240 -66.5165  -5.7475   5.9481   5.9806   6.8479
     6.8493   7.0218   8.9662  11.5328  11.5449  13.6899  24.4292  26.8836
    29.3655

     occupation numbers 
     1.0000   1.0000   1.0000   1.0000   1.0000   1.0000   1.0000   1.0000
     1.0000   1.0000   1.0000   1.0000   1.0000   0.0000   0.0000   0.0000
     0.0000

          k =-0.0033 0.1668 0.0833 (   779 PWs)   bands (ev):

  -112.3434 -66.5382 -66.5251 -66.5164  -5.6835   5.9660   6.0050   6.7887
     6.8479   6.9937   8.9695  11.0451  11.6050  14.1854  24.4776  26.1860
    29.3387

     occupation numbers 
     1.0000   1.0000   1.0000   1.0000   1.0000   1.0000   1.0000   1.0000
     1.0000   1.0000   1.0000   1.0000   1.0000   0.0000   0.0000   0.0000
     0.0000

          k =-0.0033 0.1668 0.1667 (   785 PWs)   bands (ev):

  -112.3432 -66.5380 -66.5284 -66.5162  -5.5018   5.9623   6.0805   6.6520
     6.8212   6.9441   8.8055  10.4315  11.7591  15.0456  24.5783  24.6923
    29.2984

     occupation numbers 
     1.0000   1.0000   1.0000   1.0000   1.0000   1.0000   1.0000   1.0000
     1.0000   1.0000   1.0000   1.0000   1.0000   0.0000   0.0000   0.0000
     0.0000

          k =-0.0033 0.1668 0.2500 (   791 PWs)   bands (ev):

  -112.3429 -66.5377 -66.5327 -66.5160  -5.2355   5.8301   6.1239   6.5539
     6.7329   6.9363   8.3227  10.3701  11.9673  15.8826  22.9131  24.8020
    29.1785

     occupation numbers 
     1.0000   1.0000   1.0000   1.0000   1.0000   1.0000   1.0000   1.0000
     1.0000   1.0000   1.0000   1.0000   1.0000   0.0000   0.0000   0.0000
     0.0000

          k =-0.0033 0.1668 0.3334 (   789 PWs)   bands (ev):

  -112.3426 -66.5375 -66.5370 -66.5156  -4.9438   5.4553   6.1532   6.5061
     6.6332   6.9481   7.9707  10.6042  12.1744  16.6694  21.2377  24.9985
    28.9864

     occupation numbers 
     1.0000   1.0000   1.0000   1.0000   1.0000   1.0000   1.0000   1.0000
     1.0000   1.0000   1.0000   1.0000   1.0000   0.0000   0.0000   0.0000
     0.0000

          k =-0.0033 0.1668 0.4167 (   792 PWs)   bands (ev):

  -112.3424 -66.5402 -66.5372 -66.5154  -4.7100   5.0496   6.1848   6.4400
     6.5602   6.9591   7.8852  10.8477  12.3263  17.4674  19.7858  25.1526
    28.8068

     occupation numbers 
     1.0000   1.0000   1.0000   1.0000   1.0000   1.0000   1.0000   1.0000
     1.0000   1.0000   1.0000   1.0000   1.0002   0.0000   0.0000   0.0000
     0.0000

          k =-0.0033 0.1668-0.5001 (   792 PWs)   bands (ev):

  -112.3423 -66.5415 -66.5371 -66.5153  -4.6194   4.8803   6.2004   6.4067
     6.5327   6.9635   7.8851  10.9486  12.3821  18.1290  18.8817  25.2118
    28.7347

     occupation numbers 
     1.0000   1.0000   1.0000   1.0000   1.0000   1.0000   1.0000   1.0000
     1.0000   1.0000   1.0000   1.0000   1.0009   0.0000   0.0000   0.0000
     0.0000

          k =-0.0050 0.2502 0.0000 (   783 PWs)   bands (ev):

  -112.3432 -66.5411 -66.5237 -66.5177  -5.4588   5.7191   6.0118   6.7004
     6.7030   7.0297   8.1608  11.8298  11.8339  14.7033  22.8364  27.3672
    28.9441

     occupation numbers 
     1.0000   1.0000   1.0000   1.0000   1.0000   1.0000   1.0000   1.0000
     1.0000   1.0000   1.0000   1.0000   1.0000   0.0000   0.0000   0.0000
     0.0000

          k =-0.0050 0.2502 0.0833 (   788 PWs)   bands (ev):

  -112.3431 -66.5411 -66.5249 -66.5177  -5.4004   5.7623   6.0335   6.6542
     6.7145   7.0031   8.2136  11.3202  11.8695  15.1255  22.8629  26.4399
    28.9317

     occupation numbers 
     1.0000   1.0000   1.0000   1.0000   1.0000   1.0000   1.0000   1.0000
     1.0000   1.0000   1.0000   1.0000   1.0000   0.0000   0.0000   0.0000
     0.0000

          k =-0.0050 0.2502 0.1667 (   788 PWs)   bands (ev):

  -112.3429 -66.5408 -66.5281 -66.5175  -5.2354   5.8313   6.1210   6.5591
     6.7301   6.9374   8.3237  10.3697  11.9640  15.8825  22.8970  24.8107
    29.1236

     occupation numbers 
     1.0000   1.0000   1.0000   1.0000   1.0000   1.0000   1.0000   1.0000
     1.0000   1.0000   1.0000   1.0000   1.0000   0.0000   0.0000   0.0000
     0.0000

          k =-0.0050 0.2502 0.2500 (   784 PWs)   bands (ev):

  -112.3426 -66.5404 -66.5323 -66.5171  -4.9953   5.8099   6.2596   6.4881
     6.7254   6.8777   8.3160   9.6594  12.0913  16.5450  22.4717  23.6758
    29.3500

     occupation numbers 
     1.0000   1.0000   1.0000   1.0000   1.0000   1.0000   1.0000   1.0000
     1.0000   1.0000   1.0000   1.0000   1.0000   0.0000   0.0000   0.0000
     0.0000

          k =-0.0050 0.2502 0.3334 (   780 PWs)   bands (ev):

  -112.3423 -66.5401 -66.5366 -66.5167  -4.7350   5.6629   6.3170   6.4967
     6.6709   6.8709   8.0630   9.5555  12.2173  16.9915  21.2580  23.6500
    29.5156

     occupation numbers 
     1.0000   1.0000   1.0000   1.0000   1.0000   1.0000   1.0000   1.0000
     1.0000   1.0000   1.0000   1.0000   1.0000   0.0000   0.0000   0.0000
     0.0000

          k =-0.0050 0.2502 0.4167 (   786 PWs)   bands (ev):

  -112.3421 -66.5399 -66.5398 -66.5165  -4.5289   5.4580   6.3328   6.4726
     6.6133   6.8839   7.9038   9.7183  12.3091  17.2011  20.3433  23.8085
    29.5955

     occupation numbers 
     1.0000   1.0000   1.0000   1.0000   1.0000   1.0000   1.0000   1.0000
     1.0000   1.0000   1.0000   1.0000   1.0002   0.0000   0.0000   0.0000
     0.0000

          k =-0.0050 0.2502-0.5001 (   792 PWs)   bands (ev):

  -112.3420 -66.5411 -66.5398 -66.5165  -4.4497   5.3593   6.3424   6.4439
     6.5907   6.8903   7.8768   9.8083  12.3427  17.2454  20.0274  23.8846
    29.6361

     occupation numbers 
     1.0000   1.0000   1.0000   1.0000   1.0000   1.0000   1.0000   1.0000
     1.0000   1.0000   1.0000   1.0000   1.0004   0.0000   0.0000   0.0000
     0.0000

          k =-0.0067 0.3335 0.0000 (   791 PWs)   bands (ev):

  -112.3429 -66.5443 -66.5235 -66.5186  -5.1394   5.1858   6.0422   6.5636
     6.5698   7.0375   7.8725  12.1205  12.1238  15.7025  21.2276  27.9234
    28.4769

     occupation numbers 
     1.0000   1.0000   1.0000   1.0000   1.0000   1.0000   1.0000   1.0000
     1.0000   1.0000   1.0000   1.0000   1.0000   0.0000   0.0000   0.0000
     0.0000

          k =-0.0067 0.3335 0.0833 (   787 PWs)   bands (ev):

  -112.3428 -66.5442 -66.5246 -66.5185  -5.0880   5.2620   6.0665   6.5439
     6.5908   7.0136   7.8991  11.6315  12.1336  16.0590  21.2235  26.6950
    28.4979

     occupation numbers 
     1.0000   1.0000   1.0000   1.0000   1.0000   1.0000   1.0000   1.0000
     1.0000   1.0000   1.0000   1.0000   1.0000   0.0000   0.0000   0.0000
     0.0000

          k =-0.0067 0.3335 0.1667 (   783 PWs)   bands (ev):

  -112.3426 -66.5439 -66.5277 -66.5182  -4.9434   5.4571   6.1476   6.5156
     6.6293   6.9501   7.9718  10.6026  12.1685  16.6688  21.2214  25.0033
    28.8872

     occupation numbers 
     1.0000   1.0000   1.0000   1.0000   1.0000   1.0000   1.0000   1.0000
     1.0000   1.0000   1.0000   1.0000   1.0000   0.0000   0.0000   0.0000
     0.0000

          k =-0.0067 0.3335 0.2500 (   785 PWs)   bands (ev):

  -112.3423 -66.5436 -66.5320 -66.5179  -4.7348   5.6638   6.3140   6.4969
     6.6755   6.8697   8.0650   9.5534  12.2144  16.9921  21.2418  23.6599
    29.4388

     occupation numbers 
     1.0000   1.0000   1.0000   1.0000   1.0000   1.0000   1.0000   1.0000
     1.0000   1.0000   1.0000   1.0000   1.0000   0.0000   0.0000   0.0000
     0.0000

          k =-0.0067 0.3335 0.3334 (   783 PWs)   bands (ev):

  -112.3420 -66.5432 -66.5362 -66.5176  -4.5113   5.7822   6.4946   6.5317
     6.6997   6.8130   8.0777   8.8471  12.2587  16.8291  21.2481  23.0057
    29.8317

     occupation numbers 
     1.0000   1.0000   1.0000   1.0000   1.0000   1.0000   1.0000   1.0000
     1.0000   1.0000   1.0000   1.0000   1.0000   0.0000   0.0000   0.0000
     0.0000

          k =-0.0067 0.3335 0.4167 (   788 PWs)   bands (ev):

  -112.3418 -66.5430 -66.5395 -66.5174  -4.3366   5.8348   6.5115   6.6078
     6.6773   6.8131   7.9075   8.7325  12.2902  16.4184  21.1872  22.9569
    29.4301

     occupation numbers 
     1.0000   1.0000   1.0000   1.0000   1.0000   1.0000   1.0000   1.0000
     1.0000   1.0000   1.0000   1.0000   1.0001   0.0000   0.0000   0.0000
     0.0000

          k =-0.0067 0.3335-0.5001 (   786 PWs)   bands (ev):

  -112.3417 -66.5429 -66.5406 -66.5173  -4.2700   5.8537   6.5240   6.5763
     6.6621   6.8215   7.8412   8.7740  12.3016  16.2111  21.1497  23.0257
    29.1778

     occupation numbers 
     1.0000   1.0000   1.0000   1.0000   1.0000   1.0000   1.0000   1.0000
     1.0000   1.0000   1.0000   1.0000   1.0001   0.0000   0.0000   0.0000
     0.0000

          k =-0.0083 0.4169 0.0000 (   795 PWs)   bands (ev):

  -112.3427 -66.5469 -66.5233 -66.5191  -4.8808   4.6579   6.0631   6.4696
     6.4794   7.0433   7.8619  12.3308  12.3391  16.7273  19.7516  27.9464
    28.1122

     occupation numbers 
     1.0000   1.0000   1.0000   1.0000   1.0000   1.0000   1.0000   1.0000
     1.0000   1.0000   1.0000   1.0003   1.0003   0.0000   0.0000   0.0000
     0.0000

          k =-0.0083 0.4169 0.0833 (   790 PWs)   bands (ev):

  -112.3426 -66.5467 -66.5244 -66.5190  -4.8358   4.7611   6.0914   6.4627
     6.5007   7.0215   7.8684  11.8728  12.3276  17.0475  19.7111  26.8430
    28.1636

     occupation numbers 
     1.0000   1.0000   1.0000   1.0000   1.0000   1.0000   1.0000   1.0000
     1.0000   1.0000   1.0000   1.0000   1.0002   0.0000   0.0000   0.0000
     0.0000

          k =-0.0083 0.4169 0.1667 (   788 PWs)   bands (ev):

  -112.3424 -66.5465 -66.5275 -66.5187  -4.7096   5.0517   6.1757   6.4585
     6.5512   6.9624   7.8854  10.8458  12.3183  17.4669  19.7688  25.1551
    28.6759

     occupation numbers 
     1.0000   1.0000   1.0000   1.0000   1.0000   1.0000   1.0000   1.0000
     1.0000   1.0000   1.0000   1.0000   1.0002   0.0000   0.0000   0.0000
     0.0000

          k =-0.0083 0.4169 0.2500 (   785 PWs)   bands (ev):

  -112.3421 -66.5461 -66.5317 -66.5184  -4.5286   5.4593   6.3261   6.4754
     6.6195   6.8837   7.9051   9.7160  12.3040  17.2044  20.3169  23.8222
    29.3953

     occupation numbers 
     1.0000   1.0000   1.0000   1.0000   1.0000   1.0000   1.0000   1.0000
     1.0000   1.0000   1.0000   1.0000   1.0001   0.0000   0.0000   0.0000
     0.0000

          k =-0.0083 0.4169 0.3334 (   787 PWs)   bands (ev):

  -112.3418 -66.5457 -66.5360 -66.5181  -4.3365   5.8347   6.5080   6.6070
     6.6872   6.8091   7.9094   8.7302  12.2881  16.4200  21.1615  22.9769
    29.3891

     occupation numbers 
     1.0000   1.0000   1.0000   1.0000   1.0000   1.0000   1.0000   1.0000
     1.0000   1.0000   1.0000   1.0000   1.0001   0.0000   0.0000   0.0000
     0.0000

          k =-0.0083 0.4169 0.4167 (   791 PWs)   bands (ev):

  -112.3416 -66.5454 -66.5392 -66.5179  -4.1876   6.0605   6.5980   6.7222
     6.7681   6.9070   7.8399   8.1071  12.2753  15.6635  21.8660  22.5815
    28.7141

     occupation numbers 
     1.0000   1.0000   1.0000   1.0000   1.0000   1.0000   1.0000   1.0000
     1.0000   1.0000   1.0000   1.0000   1.0001   0.0000   0.0000   0.0000
     0.0000

          k =-0.0083 0.4169-0.5001 (   786 PWs)   bands (ev):

  -112.3415 -66.5453 -66.5403 -66.5178  -4.1312   6.1397   6.6640   6.7336
     6.7626   6.9817   7.7436   7.9788  12.2703  15.3534  22.0669  22.5613
    28.3851

     occupation numbers 
     1.0000   1.0000   1.0000   1.0000   1.0000   1.0000   1.0000   1.0000
     1.0000   1.0000   1.0000   1.0000   1.0001   0.0000   0.0000   0.0000
     0.0000

          k = 0.0100-0.5003 0.0000 (   800 PWs)   bands (ev):

  -112.3426 -66.5479 -66.5233 -66.5192  -4.7797   4.4473   6.0703   6.4364
     6.4479   7.0454   7.8827  12.4081  12.4182  17.4444  18.8689  27.8458
    27.9748

     occupation numbers 
     1.0000   1.0000   1.0000   1.0000   1.0000   1.0000   1.0000   1.0000
     1.0000   1.0000   1.0000   1.0017   1.0021   0.0000   0.0000   0.0000
     0.0000

          k = 0.0100-0.5003 0.0833 (   790 PWs)   bands (ev):

  -112.3425 -66.5477 -66.5243 -66.5191  -4.7374   4.5599   6.1007   6.4330
[...]

     occupation numbers 
     1.0000   1.0000   1.0000   1.0000   1.0000   1.0000   1.0000   1.0000
     1.0000   1.0000   1.0000   1.0000   1.0000   0.0000   0.0000   0.0000
     0.0000

          k = 0.4086 0.4086 0.1667 (   789 PWs)   bands (ev):

  -112.3413 -66.5511 -66.5285 -66.5264  -4.0158   5.9513   6.1381   6.4856
     6.6572   7.1263   8.3278   8.9689  11.7961  15.9567  20.8631  21.8956
    28.9546

     occupation numbers 
     1.0000   1.0000   1.0000   1.0000   1.0000   1.0000   1.0000   1.0000
     1.0000   1.0000   1.0000   1.0000   1.0000   0.0000   0.0000   0.0000
     0.0000

          k = 0.4086 0.4086 0.2500 (   776 PWs)   bands (ev):

  -112.3410 -66.5506 -66.5305 -66.5281  -3.8186   5.7319   5.8158   6.3431
     6.7231   7.1529   8.8855   9.6691  11.4186  16.3796  19.9856  20.8738
    26.9960

     occupation numbers 
     1.0000   1.0000   1.0000   1.0000   1.0000   1.0000   1.0000   1.0000
     1.0000   1.0000   1.0000   1.0000   1.0000   0.0000   0.0000   0.0000
     0.0000

          k = 0.4086 0.4086 0.3334 (   783 PWs)   bands (ev):

  -112.3408 -66.5503 -66.5347 -66.5278  -3.6064   5.5507   5.5739   5.9661
     6.9811   7.1674   9.5102  10.3756  11.0939  16.8979  19.0560  19.8144
    25.1185

     occupation numbers 
     1.0000   1.0000   1.0000   1.0000   1.0000   1.0000   1.0000   1.0000
     1.0000   1.0000   1.0000   1.0000   1.0000   0.0000   0.0000   0.0000
     0.0000

          k = 0.4086 0.4086 0.4167 (   781 PWs)   bands (ev):

  -112.3405 -66.5500 -66.5378 -66.5274  -3.4397   5.4253   5.4329   5.6643
     7.1714   7.1755  10.0942  10.8291  10.9385  17.2427  18.5226  18.9897
    23.6546

     occupation numbers 
     1.0000   1.0000   1.0000   1.0000   1.0000   1.0000   1.0000   1.0000
     1.0000   1.0000   1.0000   1.0000   1.0000   0.0000   0.0000   0.0000
     0.0000

          k = 0.4086 0.4086-0.5001 (   770 PWs)   bands (ev):

  -112.3405 -66.5498 -66.5388 -66.5273  -3.3760   5.3753   5.3896   5.5516
     7.1781   7.2408  10.4866  10.5810  11.1624  17.2359  18.5195  18.6705
    23.0545

     occupation numbers 
     1.0000   1.0000   1.0000   1.0000   1.0000   1.0000   1.0000   1.0000
     1.0000   1.0000   1.0000   1.0000   1.0000   0.0000   0.0000   0.0000
     0.0000

          k = 0.4269-0.5086 0.0000 (   784 PWs)   bands (ev):

  -112.3415 -66.5519 -66.5294 -66.5220  -4.1354   6.1414   6.6747   6.7204
     6.7658   6.9773   7.7340   7.9957  12.2700  15.3688  21.9155  22.7113
    28.4126

     occupation numbers 
     1.0000   1.0000   1.0000   1.0000   1.0000   1.0000   1.0000   1.0000
     1.0000   1.0000   1.0000   1.0000   1.0001   0.0000   0.0000   0.0000
     0.0000

          k = 0.4269-0.5086 0.0833 (   789 PWs)   bands (ev):

  -112.3415 -66.5519 -66.5293 -66.5232  -4.0872   6.1784   6.3980   6.5166
     6.7742   7.1123   7.9617   8.2297  12.1420  15.4605  21.6884  22.4261
    28.6828

     occupation numbers 
     1.0000   1.0000   1.0000   1.0000   1.0000   1.0000   1.0000   1.0000
     1.0000   1.0000   1.0000   1.0000   1.0000   0.0000   0.0000   0.0000
     0.0000

          k = 0.4269-0.5086 0.1667 (   785 PWs)   bands (ev):

  -112.3413 -66.5516 -66.5290 -66.5262  -3.9512   6.0332   6.0542   6.4805
     6.6013   7.1792   8.5067   8.7789  11.8292  15.7369  21.0187  21.6543
    29.1527

     occupation numbers 
     1.0000   1.0000   1.0000   1.0000   1.0000   1.0000   1.0000   1.0000
     1.0000   1.0000   1.0000   1.0000   1.0000   0.0000   0.0000   0.0000
     0.0000

          k = 0.4269-0.5086 0.2500 (   784 PWs)   bands (ev):

  -112.3410 -66.5513 -66.5304 -66.5286  -3.7544   5.7442   5.7575   6.2544
     6.7336   7.2048   9.1869   9.4544  11.4774  16.1984  20.0155  20.6103
    26.9789

     occupation numbers 
     1.0000   1.0000   1.0000   1.0000   1.0000   1.0000   1.0000   1.0000
     1.0000   1.0000   1.0000   1.0000   1.0000   0.0000   0.0000   0.0000
     0.0000

          k = 0.4269-0.5086 0.3334 (   784 PWs)   bands (ev):

  -112.3407 -66.5509 -66.5346 -66.5282  -3.5424   5.5171   5.5381   5.8688
     6.9947   7.2200   9.8952  10.1305  11.2011  16.8138  18.9326  19.5488
    24.8816

     occupation numbers 
     1.0000   1.0000   1.0000   1.0000   1.0000   1.0000   1.0000   1.0000
     1.0000   1.0000   1.0000   1.0000   1.0000   0.0000   0.0000   0.0000
     0.0000

          k = 0.4269-0.5086 0.4167 (   780 PWs)   bands (ev):

  -112.3405 -66.5506 -66.5377 -66.5279  -3.3759   5.3835   5.4035   5.5543
     7.1760   7.2424  10.4856  10.6370  11.0675  17.3521  18.2051  18.7232
    23.2433

     occupation numbers 
     1.0000   1.0000   1.0000   1.0000   1.0000   1.0000   1.0000   1.0000
     1.0000   1.0000   1.0000   1.0000   1.0000   0.0000   0.0000   0.0000
     0.0000

          k = 0.4269-0.5086-0.5001 (   780 PWs)   bands (ev):

  -112.3404 -66.5505 -66.5388 -66.5278  -3.3122   5.3526   5.3551   5.4233
     7.2096   7.2834  10.7526  10.7541  11.0872  17.3527  18.2825  18.3388
    22.5551

     occupation numbers 
     1.0000   1.0000   1.0000   1.0000   1.0000   1.0000   1.0000   1.0000
     1.0000   1.0000   1.0000   1.0000   1.0000   0.0000   0.0000   0.0000
     0.0000

          k = 0.4253-0.4253 0.0000 (   788 PWs)   bands (ev):

  -112.3416 -66.5515 -66.5289 -66.5221  -4.1826   6.0499   6.6128   6.7285
     6.7513   6.8589   7.8801   8.0685  12.2906  15.7490  22.1124  22.2650
    28.8148

     occupation numbers 
     1.0000   1.0000   1.0000   1.0000   1.0000   1.0000   1.0000   1.0000
     1.0000   1.0000   1.0000   1.0000   1.0001   0.0000   0.0000   0.0000
     0.0000

          k = 0.4253-0.4253 0.0833 (   792 PWs)   bands (ev):

  -112.3416 -66.5514 -66.5288 -66.5233  -4.1352   6.0661   6.4447   6.4623
     6.8037   7.0203   8.0231   8.2864  12.1515  15.8346  21.9393  21.9993
    28.9809

     occupation numbers 
     1.0000   1.0000   1.0000   1.0000   1.0000   1.0000   1.0000   1.0000
     1.0000   1.0000   1.0000   1.0000   1.0000   0.0000   0.0000   0.0000
     0.0000

          k = 0.4253-0.4253 0.1667 (   791 PWs)   bands (ev):

  -112.3413 -66.5511 -66.5286 -66.5263  -4.0014   5.9442   6.1102   6.4581
     6.6954   7.1037   8.4252   8.8189  11.8107  16.0874  21.2661  21.3829
    28.7453

     occupation numbers 
     1.0000   1.0000   1.0000   1.0000   1.0000   1.0000   1.0000   1.0000
     1.0000   1.0000   1.0000   1.0000   1.0000   0.0000   0.0000   0.0000
     0.0000

          k = 0.4253-0.4253 0.2500 (   792 PWs)   bands (ev):

  -112.3411 -66.5508 -66.5305 -66.5283  -3.8081   5.7211   5.8083   6.3594
     6.7288   7.1393   8.9884   9.4945  11.4215  16.4921  20.2427  20.4879
    27.0298

     occupation numbers 
     1.0000   1.0000   1.0000   1.0000   1.0000   1.0000   1.0000   1.0000
     1.0000   1.0000   1.0000   1.0000   1.0000   0.0000   0.0000   0.0000
     0.0000

          k = 0.4253-0.4253 0.3334 (   785 PWs)   bands (ev):

  -112.3408 -66.5503 -66.5347 -66.5279  -3.6002   5.5394   5.5833   5.9960
     6.9833   7.1579   9.6125  10.1906  11.0933  16.9910  19.1727  19.5013
    25.2946

     occupation numbers 
     1.0000   1.0000   1.0000   1.0000   1.0000   1.0000   1.0000   1.0000
     1.0000   1.0000   1.0000   1.0000   1.0000   0.0000   0.0000   0.0000
     0.0000

          k = 0.4253-0.4253 0.4167 (   784 PWs)   bands (ev):

  -112.3405 -66.5500 -66.5377 -66.5276  -3.4373   5.4337   5.4453   5.6873
     7.1679   7.1760  10.1806  10.7558  10.8437  17.3927  18.3316  18.8088
    23.9615

     occupation numbers 
     1.0000   1.0000   1.0000   1.0000   1.0000   1.0000   1.0000   1.0000
     1.0000   1.0000   1.0000   1.0000   1.0000   0.0000   0.0000   0.0000
     0.0000

          k = 0.4253-0.4253-0.5001 (   788 PWs)   bands (ev):

  -112.3405 -66.5499 -66.5389 -66.5276  -3.3750   5.3989   5.4075   5.5591
     7.1712   7.2466  10.5334  10.6357  10.9838  17.4803  18.0032  18.6500
    23.4304

     occupation numbers 
     1.0000   1.0000   1.0000   1.0000   1.0000   1.0000   1.0000   1.0000
     1.0000   1.0000   1.0000   1.0000   1.0000   0.0000   0.0000   0.0000
     0.0000

          k =-0.4903-0.4903 0.0000 (   788 PWs)   bands (ev):

  -112.3415 -66.5525 -66.5299 -66.5219  -4.0833   6.2170   6.7320   6.7561
     6.8074   7.2655   7.5186   7.7287  12.2584  15.0291  22.1190  22.7513
    28.0358

     occupation numbers 
     1.0000   1.0000   1.0000   1.0000   1.0000   1.0000   1.0000   1.0000
     1.0000   1.0000   1.0000   1.0000   1.0000   0.0000   0.0000   0.0000
     0.0000

          k =-0.4903-0.4903 0.0833 (   794 PWs)   bands (ev):

  -112.3414 -66.5525 -66.5298 -66.5231  -4.0346   6.2851   6.4637   6.5017
     6.7253   7.2666   7.8801   8.0754  12.1371  15.1220  21.8313  22.4629
    28.3552

     occupation numbers 
     1.0000   1.0000   1.0000   1.0000   1.0000   1.0000   1.0000   1.0000
     1.0000   1.0000   1.0000   1.0000   1.0000   0.0000   0.0000   0.0000
     0.0000

          k =-0.4903-0.4903 0.1667 (   790 PWs)   bands (ev):

  -112.3412 -66.5523 -66.5295 -66.5262  -3.8969   6.0730   6.1032   6.4495
     6.5112   7.2699   8.5437   8.7430  11.8392  15.4065  21.0443  21.6776
    29.1333

     occupation numbers 
     1.0000   1.0000   1.0000   1.0000   1.0000   1.0000   1.0000   1.0000
     1.0000   1.0000   1.0000   1.0000   1.0000   0.0000   0.0000   0.0000
     0.0000

          k =-0.4903-0.4903 0.2500 (   782 PWs)   bands (ev):

  -112.3409 -66.5518 -66.5303 -66.5291  -3.6973   5.7451   5.7599   6.1236
     6.7428   7.2743   9.2985   9.5047  11.5001  15.8990  19.9564  20.5995
    26.7913

     occupation numbers 
     1.0000   1.0000   1.0000   1.0000   1.0000   1.0000   1.0000   1.0000
     1.0000   1.0000   1.0000   1.0000   1.0000   0.0000   0.0000   0.0000
     0.0000

          k =-0.4903-0.4903 0.3334 (   782 PWs)   bands (ev):

  -112.3406 -66.5514 -66.5345 -66.5287  -3.4820   5.5053   5.5060   5.7305
     7.0114   7.2787  10.0562  10.2601  11.2246  16.6068  18.8229  19.4859
    24.4285

     occupation numbers 
     1.0000   1.0000   1.0000   1.0000   1.0000   1.0000   1.0000   1.0000
     1.0000   1.0000   1.0000   1.0000   1.0000   0.0000   0.0000   0.0000
     0.0000

          k =-0.4903-0.4903 0.4167 (   780 PWs)   bands (ev):

  -112.3404 -66.5511 -66.5376 -66.5284  -3.3126   5.3512   5.3597   5.4204
     7.2113   7.2819  10.6734  10.8641  11.0558  17.4451  17.9267  18.6157
    22.5422

     occupation numbers 
     1.0000   1.0000   1.0000   1.0000   1.0000   1.0000   1.0000   1.0000
     1.0000   1.0000   1.0000   1.0000   1.0000   0.0000   0.0000   0.0000
     0.0000

          k =-0.4903-0.4903-0.5001 (   780 PWs)   bands (ev):

  -112.3403 -66.5511 -66.5387 -66.5283  -3.2476   5.2993   5.3022   5.3109
     7.2831   7.2850  10.9252  11.0001  11.1065  17.5734  17.9353  18.2764
    21.6936

     occupation numbers 
     1.0000   1.0000   1.0000   1.0000   1.0000   1.0000   1.0000   1.0000
     1.0000   1.0000   1.0000   1.0000   1.0000   0.0000   0.0000   0.0000
     0.0000

     the Fermi energy is    13.0018 ev

     WARNING: integrated charge=    26.00875272, expected=    26.00000000

!    total energy              =    -503.17179723 Ry
     estimated scf accuracy    <          4.4E-09 Ry
     smearing contrib. (-TS)   =       0.00000884 Ry
     internal energy E=F+TS    =    -503.17180607 Ry

     The total energy is F=E-TS. E is the sum of the following terms:
     one-electron contribution =    -353.07214806 Ry
     hartree contribution      =     190.18306849 Ry
     xc contribution           =     -49.70929627 Ry
     ewald contribution        =    -281.04231726 Ry
     one-center paw contrib.   =      -9.53111296 Ry
      -> PAW hartree energy AE =      25.61123086 Ry
      -> PAW hartree energy PS =     -25.49736849 Ry
      -> PAW xc energy AE      =     -16.59540365 Ry
      -> PAW xc energy PS      =       6.95042832 Ry
      -> total E_H with PAW    =     190.29693086 Ry
      -> total E_XC with PAW   =     -59.35427160 Ry

     convergence has been achieved in   9 iterations

     Forces acting on atoms (cartesian axes, Ry/au):

     atom    1 type  2   force =     0.00000000    0.00000000    0.00000000
     atom    2 type  1   force =     0.00000000    0.00000000    0.00000000
     The non-local contrib.  to forces
     atom    1 type  2   force =     0.00000000    0.00000000    0.00000000
     atom    2 type  1   force =     0.00000000    0.00000000    0.00000000
     The ionic contribution  to forces
     atom    1 type  2   force =    -0.00000000   -0.00000000   -0.00000000
     atom    2 type  1   force =    -0.00000000   -0.00000000   -0.00000000
     The local contribution  to forces
     atom    1 type  2   force =     0.00000000    0.00000000    0.00000000
     atom    2 type  1   force =     0.00000000    0.00000000    0.00000000
     The core correction contribution to forces
     atom    1 type  2   force =     0.00000000    0.00000000    0.00000000
     atom    2 type  1   force =     0.00000000    0.00000000    0.00000000
     The Hubbard contrib.    to forces
     atom    1 type  2   force =     0.00000000    0.00000000    0.00000000
     atom    2 type  1   force =     0.00000000    0.00000000    0.00000000
     The SCF correction term to forces
     atom    1 type  2   force =     0.00000000    0.00000000    0.00000000
     atom    2 type  1   force =     0.00000000    0.00000000    0.00000000

     Total force =     0.000000     Total SCF correction =     0.000000


     Computing stress (Cartesian axis) and pressure

          total   stress  (Ry/bohr**3)                   (kbar)     P=       10.34
   0.00007175   0.00016752   0.00000000           10.55       24.64        0.00
   0.00016752   0.00007175   0.00000000           24.64       10.55        0.00
   0.00000000   0.00000000   0.00006729            0.00        0.00        9.90

     kinetic stress (kbar)  42483.94     87.20      0.00
                               87.20  42483.94      0.00
                                0.00      0.00  42479.96

     local   stress (kbar)  10119.11   1542.40      0.00
                             1542.40  10119.11     -0.00
                                0.00     -0.00   9948.88

     nonloc. stress (kbar)   -941.83    -29.39      0.00
                              -29.39   -941.83      0.00
                                0.00      0.00   -939.55

     hartree stress (kbar)  70853.83   -569.49     -0.00
                             -569.49  70853.83      0.00
                               -0.00      0.00  70920.71

     exc-cor stress (kbar) -17257.80     -2.07     -0.00
                               -2.07 -17257.80      0.00
                               -0.00      0.00 -17257.65

     corecor stress (kbar)   -475.03     -0.25     -0.00
                               -0.25   -475.03     -0.00
                               -0.00     -0.00   -475.02

     ewald   stress (kbar)-104771.67  -1003.75     -0.00
                            -1003.75-104771.67      0.00
                               -0.00      0.00-104667.42

     hubbard stress (kbar)      0.00      0.00      0.00
                                0.00      0.00      0.00
                                0.00      0.00      0.00

     DFT-D   stress (kbar)      0.00      0.00      0.00
                                0.00      0.00      0.00
                                0.00      0.00      0.00

     XDM     stress (kbar)      0.00      0.00      0.00
                                0.00      0.00      0.00
                                0.00      0.00      0.00

     dft-nl  stress (kbar)      0.00      0.00      0.00
                                0.00      0.00      0.00
                                0.00      0.00      0.00

     TS-vdW  stress (kbar)      0.00      0.00      0.00
                                0.00      0.00      0.00
                                0.00      0.00      0.00

     MDB     stress (kbar)      0.00      0.00      0.00
                                0.00      0.00      0.00
                                0.00      0.00      0.00

     3D-RISM stress (kbar)      0.00      0.00      0.00
                                0.00      0.00      0.00
                                0.00      0.00      0.00


     Writing all to output data dir ./temp_cubic/aiida.save/ :
     XML data file, charge density, pseudopotentials, collected wavefunctions

     init_run     :    133.80s CPU      5.80s WALL (       1 calls)
     electrons    :   2454.90s CPU    103.46s WALL (       1 calls)
     forces       :     24.17s CPU      1.04s WALL (       1 calls)
     stress       :     26.29s CPU      1.32s WALL (       1 calls)

     Called by init_run:
     wfcinit      :    130.25s CPU      5.44s WALL (       1 calls)
     wfcinit:atom :      2.66s CPU      0.11s WALL (     301 calls)
     wfcinit:wfcr :    121.38s CPU      5.10s WALL (     301 calls)
     potinit      :      0.82s CPU      0.05s WALL (       1 calls)
     hinit0       :      1.12s CPU      0.23s WALL (       1 calls)

     Called by electrons:
     c_bands      :   2165.07s CPU     90.85s WALL (       9 calls)
     sum_band     :    280.57s CPU     12.00s WALL (       9 calls)
     v_of_rho     :      0.99s CPU      0.07s WALL (      10 calls)
     v_h          :      0.02s CPU      0.01s WALL (      10 calls)
     v_xc         :      1.20s CPU      0.07s WALL (      12 calls)
     newd         :      5.97s CPU      0.42s WALL (      10 calls)
     PAW_pot      :      2.71s CPU      0.09s WALL (      10 calls)
     mix_rho      :      0.20s CPU      0.02s WALL (       9 calls)

     Called by c_bands:
     init_us_2    :     36.48s CPU      1.48s WALL (    6321 calls)
     cegterg      :   1982.48s CPU     83.79s WALL (    2709 calls)

     Called by sum_band:
     sum_band:wei :      1.02s CPU      0.04s WALL (       9 calls)
     sum_band:loo :    275.50s CPU     11.52s WALL (       9 calls)
     sum_band:buf :      1.44s CPU      0.07s WALL (    2709 calls)
     sum_band:ini :     11.51s CPU      0.47s WALL (    2709 calls)
     sum_band:cal :     32.58s CPU      1.41s WALL (    2709 calls)
     sum_band:bec :     10.78s CPU      0.45s WALL (    2709 calls)
     addusdens    :      3.60s CPU      0.39s WALL (       9 calls)
                                        0.00s GPU  (       9 calls)
     addusd:skk   :      0.00s CPU      0.00s WALL (      18 calls)
                                        0.00s GPU  (      18 calls)

     Called by *egterg:
     cdiaghg      :     52.39s CPU      2.34s WALL (    8628 calls)
     cegterg:over :    113.68s CPU      5.00s WALL (    5919 calls)
     cegterg:upda :    100.77s CPU      3.96s WALL (    5919 calls)
     cegterg:last :    194.38s CPU      7.50s WALL (    5255 calls)
     h_psi        :   1407.50s CPU     60.48s WALL (    8929 calls)
     s_psi        :     91.27s CPU      4.00s WALL (    8929 calls)
     g_psi        :     29.18s CPU      1.15s WALL (    5919 calls)

     Called by h_psi:
     h_psi:calbec :     85.12s CPU      3.68s WALL (    8929 calls)
     vloc_psi     :   1197.00s CPU     51.26s WALL (    8929 calls)
     add_vuspsi   :     90.65s CPU      4.00s WALL (    8929 calls)

     General routines
     calbec       :    137.01s CPU      5.82s WALL (   13143 calls)
     fft          :      1.08s CPU      0.07s WALL (     153 calls)
     ffts         :      0.00s CPU      0.00s WALL (      19 calls)
     fftw         :    540.63s CPU     23.02s WALL (  270121 calls)
     interpolate  :      0.01s CPU      0.01s WALL (      10 calls)

     Parallel routines

     PAW routines
     PAW_pot      :      2.71s CPU      0.09s WALL (      10 calls)
     PAW_symme    :      0.00s CPU      0.00s WALL (      19 calls)

     PWSCF        :  44m26.64s CPU   1m54.23s WALL


   This run was terminated on:  17:17:17  13Jun2024            

=------------------------------------------------------------------------------=
   JOB DONE.
=------------------------------------------------------------------------------=
