
     Program PWSCF v.7.3.1 starts on  8Jun2024 at 22:33: 1 

     This program is part of the open-source Quantum ESPRESSO suite
     for quantum simulation of materials; please cite
         "P. Giannozzi et al., J. Phys.:Condens. Matter 21 395502 (2009);
         "P. Giannozzi et al., J. Phys.:Condens. Matter 29 465901 (2017);
         "P. Giannozzi et al., J. Chem. Phys. 152 154105 (2020);
          URL http://www.quantum-espresso.org", 
     in publications or presentations arising from this work. More details at
     http://www.quantum-espresso.org/quote

     Parallel version (MPI & OpenMP), running on      24 processor cores
     Number of MPI processes:                 1
     Threads/MPI process:                    24

     MPI processes distributed on     1 nodes
     4726 MiB available memory on the printing compute node when the environment starts

     Waiting for input...
     Reading input from standard input

     Current dimensions of program PWSCF are:
     Max number of different atomic species (ntypx) = 10
     Max number of k-points (npk) =  40000
     Max angular momentum in pseudopotentials (lmaxx) =  4
     file O.pbe-n-kjpaw_psl.0.1.UPF: wavefunction(s)  2P renormalized
     Message from routine setup:
     using ibrav=0 with symmetry is DISCOURAGED, use correct ibrav instead

     Subspace diagonalization in iterative solution of the eigenvalue problem:
     a serial algorithm will be used


     G-vector sticks info
     --------------------
     sticks:   dense  smooth     PW     G-vecs:    dense   smooth      PW
     Sum         829     421    137                17845     6355    1213

     Using Slab Decomposition



     bravais-lattice index     =            0
     lattice parameter (alat)  =       5.0869  a.u.
     unit-cell volume          =     131.6291 (a.u.)^3
     number of atoms/cell      =            2
     number of atomic types    =            2
     number of electrons       =        26.00
     number of Kohn-Sham states=           17
     kinetic-energy cutoff     =      50.0000  Ry
     charge density cutoff     =     400.0000  Ry
     scf convergence threshold =      1.0E-08
     mixing beta               =       0.4000
     number of iterations used =            8  plain     mixing
     energy convergence thresh.=      2.0E-05
     force convergence thresh. =      1.0E-04
     press convergence thresh. =      5.0E-01
     Exchange-correlation= SLA  PW   PBE  PBE
                           (   1   4   3   4   0   0   0)
     nstep                     =           50


     celldm(1)=   5.086871  celldm(2)=   0.000000  celldm(3)=   0.000000
     celldm(4)=   0.000000  celldm(5)=   0.000000  celldm(6)=   0.000000

     crystal axes: (cart. coord. in units of alat)
               a(1) = (   1.000000   0.000000   0.000000 )  
               a(2) = (   0.000000   1.000000   0.000000 )  
               a(3) = (   0.000000   0.000000   1.000000 )  

     reciprocal axes: (cart. coord. in units 2 pi/alat)
               b(1) = (  1.000000  0.000000  0.000000 )  
               b(2) = (  0.000000  1.000000  0.000000 )  
               b(3) = (  0.000000  0.000000  1.000000 )  


     PseudoPot. # 1 for O  read from file:
     ../SSSP_1.3.0_PBE_efficiency/O.pbe-n-kjpaw_psl.0.1.UPF
     MD5 check sum: 0234752ac141de4415c5fc33072bef88
     Pseudo is Projector augmented-wave + core cor, Zval =  6.0
     Generated using "atomic" code by A. Dal Corso  v.5.0.99 svn rev. 10869
     Shape of augmentation charge: BESSEL
     Using radial grid of 1095 points,  4 beta functions with: 
                l(1) =   0
                l(2) =   0
                l(3) =   1
                l(4) =   1
     Q(r) pseudized with 0 coefficients 


     PseudoPot. # 2 for Zn read from file:
     ../SSSP_1.3.0_PBE_efficiency/Zn_pbe_v1.uspp.F.UPF
     MD5 check sum: df62231357ef9e81f77b2b3087fa5675
     Pseudo is Ultrasoft, Zval = 20.0
     Generated by new atomic code, or converted to UPF format
     Using radial grid of  943 points,  6 beta functions with: 
                l(1) =   0
                l(2) =   0
                l(3) =   1
                l(4) =   1
                l(5) =   2
                l(6) =   2
     Q(r) pseudized with  8 coefficients,  rinner =    1.100   1.100   1.100
                                                       1.100   1.100

     atomic species   valence    mass     pseudopotential
     O                 6.00    15.99940     O ( 1.00)
     Zn               20.00    65.38000     Zn( 1.00)

     48 Sym. Ops., with inversion, found


                                    s                        frac. trans.

      isym =  1     identity                                     

 cryst.   s( 1) = (     1          0          0      )
                  (     0          1          0      )
                  (     0          0          1      )

 cart.    s( 1) = (  1.0000000  0.0000000  0.0000000 )
                  (  0.0000000  1.0000000  0.0000000 )
                  (  0.0000000  0.0000000  1.0000000 )


      isym =  2     180 deg rotation - cart. axis [0,0,1]        

 cryst.   s( 2) = (    -1          0          0      )
                  (     0         -1          0      )
                  (     0          0          1      )

 cart.    s( 2) = ( -1.0000000  0.0000000  0.0000000 )
                  (  0.0000000 -1.0000000  0.0000000 )
                  (  0.0000000  0.0000000  1.0000000 )


      isym =  3     180 deg rotation - cart. axis [0,1,0]        

 cryst.   s( 3) = (    -1          0          0      )
                  (     0          1          0      )
                  (     0          0         -1      )

 cart.    s( 3) = ( -1.0000000  0.0000000  0.0000000 )
                  (  0.0000000  1.0000000  0.0000000 )
                  (  0.0000000  0.0000000 -1.0000000 )


      isym =  4     180 deg rotation - cart. axis [1,0,0]        

 cryst.   s( 4) = (     1          0          0      )
                  (     0         -1          0      )
                  (     0          0         -1      )

 cart.    s( 4) = (  1.0000000  0.0000000  0.0000000 )
                  (  0.0000000 -1.0000000  0.0000000 )
                  (  0.0000000  0.0000000 -1.0000000 )


      isym =  5     180 deg rotation - cart. axis [1,1,0]        

 cryst.   s( 5) = (     0          1          0      )
                  (     1          0          0      )
                  (     0          0         -1      )

 cart.    s( 5) = (  0.0000000  1.0000000  0.0000000 )
                  (  1.0000000  0.0000000  0.0000000 )
                  (  0.0000000  0.0000000 -1.0000000 )


      isym =  6     180 deg rotation - cart. axis [1,-1,0]       

 cryst.   s( 6) = (     0         -1          0      )
                  (    -1          0          0      )
                  (     0          0         -1      )

 cart.    s( 6) = (  0.0000000 -1.0000000  0.0000000 )
                  ( -1.0000000  0.0000000  0.0000000 )
                  (  0.0000000  0.0000000 -1.0000000 )


      isym =  7      90 deg rotation - cart. axis [0,0,-1]       

 cryst.   s( 7) = (     0         -1          0      )
                  (     1          0          0      )
                  (     0          0          1      )

 cart.    s( 7) = (  0.0000000  1.0000000  0.0000000 )
                  ( -1.0000000  0.0000000  0.0000000 )
                  (  0.0000000  0.0000000  1.0000000 )


      isym =  8      90 deg rotation - cart. axis [0,0,1]        

 cryst.   s( 8) = (     0          1          0      )
                  (    -1          0          0      )
                  (     0          0          1      )

 cart.    s( 8) = (  0.0000000 -1.0000000  0.0000000 )
                  (  1.0000000  0.0000000  0.0000000 )
                  (  0.0000000  0.0000000  1.0000000 )


      isym =  9     180 deg rotation - cart. axis [1,0,1]        

 cryst.   s( 9) = (     0          0          1      )
                  (     0         -1          0      )
                  (     1          0          0      )

 cart.    s( 9) = (  0.0000000  0.0000000  1.0000000 )
                  (  0.0000000 -1.0000000  0.0000000 )
                  (  1.0000000  0.0000000  0.0000000 )


      isym = 10     180 deg rotation - cart. axis [-1,0,1]       

 cryst.   s(10) = (     0          0         -1      )
                  (     0         -1          0      )
                  (    -1          0          0      )

 cart.    s(10) = (  0.0000000  0.0000000 -1.0000000 )
                  (  0.0000000 -1.0000000  0.0000000 )
                  ( -1.0000000  0.0000000  0.0000000 )


      isym = 11      90 deg rotation - cart. axis [0,1,0]        

 cryst.   s(11) = (     0          0         -1      )
                  (     0          1          0      )
                  (     1          0          0      )

 cart.    s(11) = (  0.0000000  0.0000000  1.0000000 )
                  (  0.0000000  1.0000000  0.0000000 )
                  ( -1.0000000  0.0000000  0.0000000 )


      isym = 12      90 deg rotation - cart. axis [0,-1,0]       

 cryst.   s(12) = (     0          0          1      )
                  (     0          1          0      )
                  (    -1          0          0      )

 cart.    s(12) = (  0.0000000  0.0000000 -1.0000000 )
                  (  0.0000000  1.0000000  0.0000000 )
                  (  1.0000000  0.0000000  0.0000000 )


      isym = 13     180 deg rotation - cart. axis [0,1,1]        

 cryst.   s(13) = (    -1          0          0      )
                  (     0          0          1      )
                  (     0          1          0      )

 cart.    s(13) = ( -1.0000000  0.0000000  0.0000000 )
                  (  0.0000000  0.0000000  1.0000000 )
                  (  0.0000000  1.0000000  0.0000000 )


      isym = 14     180 deg rotation - cart. axis [0,1,-1]       

 cryst.   s(14) = (    -1          0          0      )
                  (     0          0         -1      )
                  (     0         -1          0      )

 cart.    s(14) = ( -1.0000000  0.0000000  0.0000000 )
                  (  0.0000000  0.0000000 -1.0000000 )
                  (  0.0000000 -1.0000000  0.0000000 )


      isym = 15      90 deg rotation - cart. axis [-1,0,0]       

 cryst.   s(15) = (     1          0          0      )
                  (     0          0         -1      )
                  (     0          1          0      )

 cart.    s(15) = (  1.0000000  0.0000000  0.0000000 )
                  (  0.0000000  0.0000000  1.0000000 )
                  (  0.0000000 -1.0000000  0.0000000 )


      isym = 16      90 deg rotation - cart. axis [1,0,0]        

 cryst.   s(16) = (     1          0          0      )
                  (     0          0          1      )
                  (     0         -1          0      )

 cart.    s(16) = (  1.0000000  0.0000000  0.0000000 )
                  (  0.0000000  0.0000000 -1.0000000 )
                  (  0.0000000  1.0000000  0.0000000 )


      isym = 17     120 deg rotation - cart. axis [-1,-1,-1]     

 cryst.   s(17) = (     0          0          1      )
                  (     1          0          0      )
                  (     0          1          0      )

 cart.    s(17) = (  0.0000000  1.0000000  0.0000000 )
                  (  0.0000000  0.0000000  1.0000000 )
                  (  1.0000000  0.0000000  0.0000000 )


      isym = 18     120 deg rotation - cart. axis [-1,1,1]       

 cryst.   s(18) = (     0          0         -1      )
                  (    -1          0          0      )
                  (     0          1          0      )

 cart.    s(18) = (  0.0000000 -1.0000000  0.0000000 )
                  (  0.0000000  0.0000000  1.0000000 )
                  ( -1.0000000  0.0000000  0.0000000 )


      isym = 19     120 deg rotation - cart. axis [1,1,-1]       

 cryst.   s(19) = (     0          0         -1      )
                  (     1          0          0      )
                  (     0         -1          0      )

 cart.    s(19) = (  0.0000000  1.0000000  0.0000000 )
                  (  0.0000000  0.0000000 -1.0000000 )
                  ( -1.0000000  0.0000000  0.0000000 )


      isym = 20     120 deg rotation - cart. axis [1,-1,1]       

 cryst.   s(20) = (     0          0          1      )
                  (    -1          0          0      )
                  (     0         -1          0      )

 cart.    s(20) = (  0.0000000 -1.0000000  0.0000000 )
                  (  0.0000000  0.0000000 -1.0000000 )
                  (  1.0000000  0.0000000  0.0000000 )


      isym = 21     120 deg rotation - cart. axis [1,1,1]        

 cryst.   s(21) = (     0          1          0      )
                  (     0          0          1      )
                  (     1          0          0      )

 cart.    s(21) = (  0.0000000  0.0000000  1.0000000 )
                  (  1.0000000  0.0000000  0.0000000 )
                  (  0.0000000  1.0000000  0.0000000 )


      isym = 22     120 deg rotation - cart. axis [-1,1,-1]      

 cryst.   s(22) = (     0         -1          0      )
                  (     0          0         -1      )
                  (     1          0          0      )

 cart.    s(22) = (  0.0000000  0.0000000  1.0000000 )
                  ( -1.0000000  0.0000000  0.0000000 )
                  (  0.0000000 -1.0000000  0.0000000 )


      isym = 23     120 deg rotation - cart. axis [1,-1,-1]      

 cryst.   s(23) = (     0         -1          0      )
                  (     0          0          1      )
                  (    -1          0          0      )

 cart.    s(23) = (  0.0000000  0.0000000 -1.0000000 )
                  ( -1.0000000  0.0000000  0.0000000 )
                  (  0.0000000  1.0000000  0.0000000 )


      isym = 24     120 deg rotation - cart. axis [-1,-1,1]      

 cryst.   s(24) = (     0          1          0      )
                  (     0          0         -1      )
                  (    -1          0          0      )

 cart.    s(24) = (  0.0000000  0.0000000 -1.0000000 )
                  (  1.0000000  0.0000000  0.0000000 )
                  (  0.0000000 -1.0000000  0.0000000 )


      isym = 25     inversion                                    

 cryst.   s(25) = (    -1          0          0      )
                  (     0         -1          0      )
                  (     0          0         -1      )

 cart.    s(25) = ( -1.0000000  0.0000000  0.0000000 )
                  (  0.0000000 -1.0000000  0.0000000 )
                  (  0.0000000  0.0000000 -1.0000000 )


      isym = 26     inv. 180 deg rotation - cart. axis [0,0,1]   

 cryst.   s(26) = (     1          0          0      )
                  (     0          1          0      )
                  (     0          0         -1      )

 cart.    s(26) = (  1.0000000  0.0000000  0.0000000 )
                  (  0.0000000  1.0000000  0.0000000 )
                  (  0.0000000  0.0000000 -1.0000000 )


      isym = 27     inv. 180 deg rotation - cart. axis [0,1,0]   

 cryst.   s(27) = (     1          0          0      )
                  (     0         -1          0      )
                  (     0          0          1      )

 cart.    s(27) = (  1.0000000  0.0000000  0.0000000 )
                  (  0.0000000 -1.0000000  0.0000000 )
                  (  0.0000000  0.0000000  1.0000000 )


      isym = 28     inv. 180 deg rotation - cart. axis [1,0,0]   

 cryst.   s(28) = (    -1          0          0      )
                  (     0          1          0      )
                  (     0          0          1      )

 cart.    s(28) = ( -1.0000000  0.0000000  0.0000000 )
                  (  0.0000000  1.0000000  0.0000000 )
                  (  0.0000000  0.0000000  1.0000000 )


      isym = 29     inv. 180 deg rotation - cart. axis [1,1,0]   

 cryst.   s(29) = (     0         -1          0      )
                  (    -1          0          0      )
                  (     0          0          1      )

 cart.    s(29) = (  0.0000000 -1.0000000  0.0000000 )
                  ( -1.0000000  0.0000000  0.0000000 )
                  (  0.0000000  0.0000000  1.0000000 )


      isym = 30     inv. 180 deg rotation - cart. axis [1,-1,0]  

 cryst.   s(30) = (     0          1          0      )
                  (     1          0          0      )
                  (     0          0          1      )

 cart.    s(30) = (  0.0000000  1.0000000  0.0000000 )
                  (  1.0000000  0.0000000  0.0000000 )
                  (  0.0000000  0.0000000  1.0000000 )


      isym = 31     inv.  90 deg rotation - cart. axis [0,0,-1]  

 cryst.   s(31) = (     0          1          0      )
                  (    -1          0          0      )
                  (     0          0         -1      )

 cart.    s(31) = (  0.0000000 -1.0000000  0.0000000 )
                  (  1.0000000  0.0000000  0.0000000 )
                  (  0.0000000  0.0000000 -1.0000000 )


      isym = 32     inv.  90 deg rotation - cart. axis [0,0,1]   

 cryst.   s(32) = (     0         -1          0      )
                  (     1          0          0      )
                  (     0          0         -1      )

 cart.    s(32) = (  0.0000000  1.0000000  0.0000000 )
                  ( -1.0000000  0.0000000  0.0000000 )
                  (  0.0000000  0.0000000 -1.0000000 )


      isym = 33     inv. 180 deg rotation - cart. axis [1,0,1]   

 cryst.   s(33) = (     0          0         -1      )
                  (     0          1          0      )
                  (    -1          0          0      )

 cart.    s(33) = (  0.0000000  0.0000000 -1.0000000 )
                  (  0.0000000  1.0000000  0.0000000 )
                  ( -1.0000000  0.0000000  0.0000000 )


      isym = 34     inv. 180 deg rotation - cart. axis [-1,0,1]  

 cryst.   s(34) = (     0          0          1      )
                  (     0          1          0      )
                  (     1          0          0      )

 cart.    s(34) = (  0.0000000  0.0000000  1.0000000 )
                  (  0.0000000  1.0000000  0.0000000 )
                  (  1.0000000  0.0000000  0.0000000 )


      isym = 35     inv.  90 deg rotation - cart. axis [0,1,0]   

 cryst.   s(35) = (     0          0          1      )
                  (     0         -1          0      )
                  (    -1          0          0      )

 cart.    s(35) = (  0.0000000  0.0000000 -1.0000000 )
                  (  0.0000000 -1.0000000  0.0000000 )
                  (  1.0000000  0.0000000  0.0000000 )


      isym = 36     inv.  90 deg rotation - cart. axis [0,-1,0]  

 cryst.   s(36) = (     0          0         -1      )
                  (     0         -1          0      )
                  (     1          0          0      )

 cart.    s(36) = (  0.0000000  0.0000000  1.0000000 )
                  (  0.0000000 -1.0000000  0.0000000 )
                  ( -1.0000000  0.0000000  0.0000000 )


      isym = 37     inv. 180 deg rotation - cart. axis [0,1,1]   

 cryst.   s(37) = (     1          0          0      )
                  (     0          0         -1      )
                  (     0         -1          0      )

 cart.    s(37) = (  1.0000000  0.0000000  0.0000000 )
                  (  0.0000000  0.0000000 -1.0000000 )
                  (  0.0000000 -1.0000000  0.0000000 )


      isym = 38     inv. 180 deg rotation - cart. axis [0,1,-1]  

 cryst.   s(38) = (     1          0          0      )
                  (     0          0          1      )
                  (     0          1          0      )

 cart.    s(38) = (  1.0000000  0.0000000  0.0000000 )
                  (  0.0000000  0.0000000  1.0000000 )
                  (  0.0000000  1.0000000  0.0000000 )


      isym = 39     inv.  90 deg rotation - cart. axis [-1,0,0]  

 cryst.   s(39) = (    -1          0          0      )
                  (     0          0          1      )
                  (     0         -1          0      )

 cart.    s(39) = ( -1.0000000  0.0000000  0.0000000 )
                  (  0.0000000  0.0000000 -1.0000000 )
                  (  0.0000000  1.0000000  0.0000000 )


      isym = 40     inv.  90 deg rotation - cart. axis [1,0,0]   

 cryst.   s(40) = (    -1          0          0      )
                  (     0          0         -1      )
                  (     0          1          0      )

 cart.    s(40) = ( -1.0000000  0.0000000  0.0000000 )
                  (  0.0000000  0.0000000  1.0000000 )
                  (  0.0000000 -1.0000000  0.0000000 )


      isym = 41     inv. 120 deg rotation - cart. axis [-1,-1,-1]

 cryst.   s(41) = (     0          0         -1      )
                  (    -1          0          0      )
                  (     0         -1          0      )

 cart.    s(41) = (  0.0000000 -1.0000000  0.0000000 )
                  (  0.0000000  0.0000000 -1.0000000 )
                  ( -1.0000000  0.0000000  0.0000000 )


      isym = 42     inv. 120 deg rotation - cart. axis [-1,1,1]  

 cryst.   s(42) = (     0          0          1      )
                  (     1          0          0      )
                  (     0         -1          0      )

 cart.    s(42) = (  0.0000000  1.0000000  0.0000000 )
                  (  0.0000000  0.0000000 -1.0000000 )
                  (  1.0000000  0.0000000  0.0000000 )


      isym = 43     inv. 120 deg rotation - cart. axis [1,1,-1]  

 cryst.   s(43) = (     0          0          1      )
                  (    -1          0          0      )
                  (     0          1          0      )

 cart.    s(43) = (  0.0000000 -1.0000000  0.0000000 )
                  (  0.0000000  0.0000000  1.0000000 )
                  (  1.0000000  0.0000000  0.0000000 )


      isym = 44     inv. 120 deg rotation - cart. axis [1,-1,1]  

 cryst.   s(44) = (     0          0         -1      )
                  (     1          0          0      )
                  (     0          1          0      )

 cart.    s(44) = (  0.0000000  1.0000000  0.0000000 )
                  (  0.0000000  0.0000000  1.0000000 )
                  ( -1.0000000  0.0000000  0.0000000 )


      isym = 45     inv. 120 deg rotation - cart. axis [1,1,1]   

 cryst.   s(45) = (     0         -1          0      )
                  (     0          0         -1      )
                  (    -1          0          0      )

 cart.    s(45) = (  0.0000000  0.0000000 -1.0000000 )
                  ( -1.0000000  0.0000000  0.0000000 )
                  (  0.0000000 -1.0000000  0.0000000 )


      isym = 46     inv. 120 deg rotation - cart. axis [-1,1,-1] 

 cryst.   s(46) = (     0          1          0      )
                  (     0          0          1      )
                  (    -1          0          0      )

 cart.    s(46) = (  0.0000000  0.0000000 -1.0000000 )
                  (  1.0000000  0.0000000  0.0000000 )
                  (  0.0000000  1.0000000  0.0000000 )


      isym = 47     inv. 120 deg rotation - cart. axis [1,-1,-1] 

 cryst.   s(47) = (     0          1          0      )
                  (     0          0         -1      )
                  (     1          0          0      )

 cart.    s(47) = (  0.0000000  0.0000000  1.0000000 )
                  (  1.0000000  0.0000000  0.0000000 )
                  (  0.0000000 -1.0000000  0.0000000 )


      isym = 48     inv. 120 deg rotation - cart. axis [-1,-1,1] 

 cryst.   s(48) = (     0         -1          0      )
                  (     0          0          1      )
                  (     1          0          0      )

 cart.    s(48) = (  0.0000000  0.0000000  1.0000000 )
                  ( -1.0000000  0.0000000  0.0000000 )
                  (  0.0000000  1.0000000  0.0000000 )


   Cartesian axes

     site n.     atom                  positions (alat units)
         1        Zn     tau(   1) = (   0.0000000   0.0000000   0.0000000  )
         2        O      tau(   2) = (   0.5000000   0.5000000   0.5000000  )

   Crystallographic axes

     site n.     atom                  positions (cryst. coord.)
         1        Zn     tau(   1) = (  0.0000000  0.0000000  0.0000000  )
         2        O      tau(   2) = (  0.5000000  0.5000000  0.5000000  )

     number of k points=    84  Marzari-Vanderbilt smearing, width (Ry)=  0.0147
                       cart. coord. in units 2pi/alat
        k(    1) = (   0.0000000   0.0000000   0.0000000), wk =   0.0011574
        k(    2) = (   0.0000000   0.0000000   0.0833333), wk =   0.0069444
        k(    3) = (   0.0000000   0.0000000   0.1666667), wk =   0.0069444
        k(    4) = (   0.0000000   0.0000000   0.2500000), wk =   0.0069444
        k(    5) = (   0.0000000   0.0000000   0.3333333), wk =   0.0069444
        k(    6) = (   0.0000000   0.0000000   0.4166667), wk =   0.0069444
        k(    7) = (   0.0000000   0.0000000  -0.5000000), wk =   0.0034722
        k(    8) = (   0.0000000   0.0833333   0.0833333), wk =   0.0138889
        k(    9) = (   0.0000000   0.0833333   0.1666667), wk =   0.0277778
        k(   10) = (   0.0000000   0.0833333   0.2500000), wk =   0.0277778
        k(   11) = (   0.0000000   0.0833333   0.3333333), wk =   0.0277778
        k(   12) = (   0.0000000   0.0833333   0.4166667), wk =   0.0277778
        k(   13) = (   0.0000000   0.0833333  -0.5000000), wk =   0.0138889
        k(   14) = (   0.0000000   0.1666667   0.1666667), wk =   0.0138889
        k(   15) = (   0.0000000   0.1666667   0.2500000), wk =   0.0277778
        k(   16) = (   0.0000000   0.1666667   0.3333333), wk =   0.0277778
        k(   17) = (   0.0000000   0.1666667   0.4166667), wk =   0.0277778
        k(   18) = (   0.0000000   0.1666667  -0.5000000), wk =   0.0138889
        k(   19) = (   0.0000000   0.2500000   0.2500000), wk =   0.0138889
        k(   20) = (   0.0000000   0.2500000   0.3333333), wk =   0.0277778
        k(   21) = (   0.0000000   0.2500000   0.4166667), wk =   0.0277778
        k(   22) = (   0.0000000   0.2500000  -0.5000000), wk =   0.0138889
        k(   23) = (   0.0000000   0.3333333   0.3333333), wk =   0.0138889
        k(   24) = (   0.0000000   0.3333333   0.4166667), wk =   0.0277778
        k(   25) = (   0.0000000   0.3333333  -0.5000000), wk =   0.0138889
        k(   26) = (   0.0000000   0.4166667   0.4166667), wk =   0.0138889
        k(   27) = (   0.0000000   0.4166667  -0.5000000), wk =   0.0138889
        k(   28) = (   0.0000000  -0.5000000  -0.5000000), wk =   0.0034722
        k(   29) = (   0.0833333   0.0833333   0.0833333), wk =   0.0092593
        k(   30) = (   0.0833333   0.0833333   0.1666667), wk =   0.0277778
        k(   31) = (   0.0833333   0.0833333   0.2500000), wk =   0.0277778
        k(   32) = (   0.0833333   0.0833333   0.3333333), wk =   0.0277778
        k(   33) = (   0.0833333   0.0833333   0.4166667), wk =   0.0277778
        k(   34) = (   0.0833333   0.0833333  -0.5000000), wk =   0.0138889
        k(   35) = (   0.0833333   0.1666667   0.1666667), wk =   0.0277778
        k(   36) = (   0.0833333   0.1666667   0.2500000), wk =   0.0555556
        k(   37) = (   0.0833333   0.1666667   0.3333333), wk =   0.0555556
        k(   38) = (   0.0833333   0.1666667   0.4166667), wk =   0.0555556
        k(   39) = (   0.0833333   0.1666667  -0.5000000), wk =   0.0277778
        k(   40) = (   0.0833333   0.2500000   0.2500000), wk =   0.0277778
        k(   41) = (   0.0833333   0.2500000   0.3333333), wk =   0.0555556
        k(   42) = (   0.0833333   0.2500000   0.4166667), wk =   0.0555556
        k(   43) = (   0.0833333   0.2500000  -0.5000000), wk =   0.0277778
        k(   44) = (   0.0833333   0.3333333   0.3333333), wk =   0.0277778
        k(   45) = (   0.0833333   0.3333333   0.4166667), wk =   0.0555556
        k(   46) = (   0.0833333   0.3333333  -0.5000000), wk =   0.0277778
        k(   47) = (   0.0833333   0.4166667   0.4166667), wk =   0.0277778
        k(   48) = (   0.0833333   0.4166667  -0.5000000), wk =   0.0277778
        k(   49) = (   0.0833333  -0.5000000  -0.5000000), wk =   0.0069444
        k(   50) = (   0.1666667   0.1666667   0.1666667), wk =   0.0092593
        k(   51) = (   0.1666667   0.1666667   0.2500000), wk =   0.0277778
        k(   52) = (   0.1666667   0.1666667   0.3333333), wk =   0.0277778
        k(   53) = (   0.1666667   0.1666667   0.4166667), wk =   0.0277778
        k(   54) = (   0.1666667   0.1666667  -0.5000000), wk =   0.0138889
        k(   55) = (   0.1666667   0.2500000   0.2500000), wk =   0.0277778
        k(   56) = (   0.1666667   0.2500000   0.3333333), wk =   0.0555556
        k(   57) = (   0.1666667   0.2500000   0.4166667), wk =   0.0555556
        k(   58) = (   0.1666667   0.2500000  -0.5000000), wk =   0.0277778
        k(   59) = (   0.1666667   0.3333333   0.3333333), wk =   0.0277778
        k(   60) = (   0.1666667   0.3333333   0.4166667), wk =   0.0555556
        k(   61) = (   0.1666667   0.3333333  -0.5000000), wk =   0.0277778
        k(   62) = (   0.1666667   0.4166667   0.4166667), wk =   0.0277778
        k(   63) = (   0.1666667   0.4166667  -0.5000000), wk =   0.0277778
        k(   64) = (   0.1666667  -0.5000000  -0.5000000), wk =   0.0069444
        k(   65) = (   0.2500000   0.2500000   0.2500000), wk =   0.0092593
        k(   66) = (   0.2500000   0.2500000   0.3333333), wk =   0.0277778
        k(   67) = (   0.2500000   0.2500000   0.4166667), wk =   0.0277778
        k(   68) = (   0.2500000   0.2500000  -0.5000000), wk =   0.0138889
        k(   69) = (   0.2500000   0.3333333   0.3333333), wk =   0.0277778
        k(   70) = (   0.2500000   0.3333333   0.4166667), wk =   0.0555556
        k(   71) = (   0.2500000   0.3333333  -0.5000000), wk =   0.0277778
        k(   72) = (   0.2500000   0.4166667   0.4166667), wk =   0.0277778
        k(   73) = (   0.2500000   0.4166667  -0.5000000), wk =   0.0277778
        k(   74) = (   0.2500000  -0.5000000  -0.5000000), wk =   0.0069444
        k(   75) = (   0.3333333   0.3333333   0.3333333), wk =   0.0092593
        k(   76) = (   0.3333333   0.3333333   0.4166667), wk =   0.0277778
        k(   77) = (   0.3333333   0.3333333  -0.5000000), wk =   0.0138889
        k(   78) = (   0.3333333   0.4166667   0.4166667), wk =   0.0277778
        k(   79) = (   0.3333333   0.4166667  -0.5000000), wk =   0.0277778
        k(   80) = (   0.3333333  -0.5000000  -0.5000000), wk =   0.0069444
        k(   81) = (   0.4166667   0.4166667   0.4166667), wk =   0.0092593
        k(   82) = (   0.4166667   0.4166667  -0.5000000), wk =   0.0138889
        k(   83) = (   0.4166667  -0.5000000  -0.5000000), wk =   0.0069444
        k(   84) = (  -0.5000000  -0.5000000  -0.5000000), wk =   0.0011574

                       cryst. coord.
        k(    1) = (   0.0000000   0.0000000   0.0000000), wk =   0.0011574
        k(    2) = (   0.0000000   0.0000000   0.0833333), wk =   0.0069444
        k(    3) = (   0.0000000   0.0000000   0.1666667), wk =   0.0069444
        k(    4) = (   0.0000000   0.0000000   0.2500000), wk =   0.0069444
        k(    5) = (   0.0000000   0.0000000   0.3333333), wk =   0.0069444
        k(    6) = (   0.0000000   0.0000000   0.4166667), wk =   0.0069444
        k(    7) = (   0.0000000   0.0000000  -0.5000000), wk =   0.0034722
        k(    8) = (   0.0000000   0.0833333   0.0833333), wk =   0.0138889
        k(    9) = (   0.0000000   0.0833333   0.1666667), wk =   0.0277778
        k(   10) = (   0.0000000   0.0833333   0.2500000), wk =   0.0277778
        k(   11) = (   0.0000000   0.0833333   0.3333333), wk =   0.0277778
        k(   12) = (   0.0000000   0.0833333   0.4166667), wk =   0.0277778
        k(   13) = (   0.0000000   0.0833333  -0.5000000), wk =   0.0138889
        k(   14) = (   0.0000000   0.1666667   0.1666667), wk =   0.0138889
        k(   15) = (   0.0000000   0.1666667   0.2500000), wk =   0.0277778
        k(   16) = (   0.0000000   0.1666667   0.3333333), wk =   0.0277778
        k(   17) = (   0.0000000   0.1666667   0.4166667), wk =   0.0277778
        k(   18) = (   0.0000000   0.1666667  -0.5000000), wk =   0.0138889
        k(   19) = (   0.0000000   0.2500000   0.2500000), wk =   0.0138889
        k(   20) = (   0.0000000   0.2500000   0.3333333), wk =   0.0277778
        k(   21) = (   0.0000000   0.2500000   0.4166667), wk =   0.0277778
        k(   22) = (   0.0000000   0.2500000  -0.5000000), wk =   0.0138889
        k(   23) = (   0.0000000   0.3333333   0.3333333), wk =   0.0138889
        k(   24) = (   0.0000000   0.3333333   0.4166667), wk =   0.0277778
        k(   25) = (   0.0000000   0.3333333  -0.5000000), wk =   0.0138889
        k(   26) = (   0.0000000   0.4166667   0.4166667), wk =   0.0138889
        k(   27) = (   0.0000000   0.4166667  -0.5000000), wk =   0.0138889
        k(   28) = (   0.0000000  -0.5000000  -0.5000000), wk =   0.0034722
        k(   29) = (   0.0833333   0.0833333   0.0833333), wk =   0.0092593
        k(   30) = (   0.0833333   0.0833333   0.1666667), wk =   0.0277778
        k(   31) = (   0.0833333   0.0833333   0.2500000), wk =   0.0277778
        k(   32) = (   0.0833333   0.0833333   0.3333333), wk =   0.0277778
        k(   33) = (   0.0833333   0.0833333   0.4166667), wk =   0.0277778
        k(   34) = (   0.0833333   0.0833333  -0.5000000), wk =   0.0138889
        k(   35) = (   0.0833333   0.1666667   0.1666667), wk =   0.0277778
        k(   36) = (   0.0833333   0.1666667   0.2500000), wk =   0.0555556
        k(   37) = (   0.0833333   0.1666667   0.3333333), wk =   0.0555556
        k(   38) = (   0.0833333   0.1666667   0.4166667), wk =   0.0555556
        k(   39) = (   0.0833333   0.1666667  -0.5000000), wk =   0.0277778
        k(   40) = (   0.0833333   0.2500000   0.2500000), wk =   0.0277778
        k(   41) = (   0.0833333   0.2500000   0.3333333), wk =   0.0555556
        k(   42) = (   0.0833333   0.2500000   0.4166667), wk =   0.0555556
        k(   43) = (   0.0833333   0.2500000  -0.5000000), wk =   0.0277778
        k(   44) = (   0.0833333   0.3333333   0.3333333), wk =   0.0277778
        k(   45) = (   0.0833333   0.3333333   0.4166667), wk =   0.0555556
        k(   46) = (   0.0833333   0.3333333  -0.5000000), wk =   0.0277778
        k(   47) = (   0.0833333   0.4166667   0.4166667), wk =   0.0277778
        k(   48) = (   0.0833333   0.4166667  -0.5000000), wk =   0.0277778
        k(   49) = (   0.0833333  -0.5000000  -0.5000000), wk =   0.0069444
        k(   50) = (   0.1666667   0.1666667   0.1666667), wk =   0.0092593
        k(   51) = (   0.1666667   0.1666667   0.2500000), wk =   0.0277778
        k(   52) = (   0.1666667   0.1666667   0.3333333), wk =   0.0277778
        k(   53) = (   0.1666667   0.1666667   0.4166667), wk =   0.0277778
        k(   54) = (   0.1666667   0.1666667  -0.5000000), wk =   0.0138889
        k(   55) = (   0.1666667   0.2500000   0.2500000), wk =   0.0277778
        k(   56) = (   0.1666667   0.2500000   0.3333333), wk =   0.0555556
        k(   57) = (   0.1666667   0.2500000   0.4166667), wk =   0.0555556
        k(   58) = (   0.1666667   0.2500000  -0.5000000), wk =   0.0277778
        k(   59) = (   0.1666667   0.3333333   0.3333333), wk =   0.0277778
        k(   60) = (   0.1666667   0.3333333   0.4166667), wk =   0.0555556
        k(   61) = (   0.1666667   0.3333333  -0.5000000), wk =   0.0277778
        k(   62) = (   0.1666667   0.4166667   0.4166667), wk =   0.0277778
        k(   63) = (   0.1666667   0.4166667  -0.5000000), wk =   0.0277778
        k(   64) = (   0.1666667  -0.5000000  -0.5000000), wk =   0.0069444
        k(   65) = (   0.2500000   0.2500000   0.2500000), wk =   0.0092593
        k(   66) = (   0.2500000   0.2500000   0.3333333), wk =   0.0277778
        k(   67) = (   0.2500000   0.2500000   0.4166667), wk =   0.0277778
        k(   68) = (   0.2500000   0.2500000  -0.5000000), wk =   0.0138889
        k(   69) = (   0.2500000   0.3333333   0.3333333), wk =   0.0277778
        k(   70) = (   0.2500000   0.3333333   0.4166667), wk =   0.0555556
        k(   71) = (   0.2500000   0.3333333  -0.5000000), wk =   0.0277778
        k(   72) = (   0.2500000   0.4166667   0.4166667), wk =   0.0277778
        k(   73) = (   0.2500000   0.4166667  -0.5000000), wk =   0.0277778
        k(   74) = (   0.2500000  -0.5000000  -0.5000000), wk =   0.0069444
        k(   75) = (   0.3333333   0.3333333   0.3333333), wk =   0.0092593
        k(   76) = (   0.3333333   0.3333333   0.4166667), wk =   0.0277778
        k(   77) = (   0.3333333   0.3333333  -0.5000000), wk =   0.0138889
        k(   78) = (   0.3333333   0.4166667   0.4166667), wk =   0.0277778
        k(   79) = (   0.3333333   0.4166667  -0.5000000), wk =   0.0277778
        k(   80) = (   0.3333333  -0.5000000  -0.5000000), wk =   0.0069444
        k(   81) = (   0.4166667   0.4166667   0.4166667), wk =   0.0092593
        k(   82) = (   0.4166667   0.4166667  -0.5000000), wk =   0.0138889
        k(   83) = (   0.4166667  -0.5000000  -0.5000000), wk =   0.0069444
        k(   84) = (  -0.5000000  -0.5000000  -0.5000000), wk =   0.0011574

     Dense  grid:    17845 G-vectors     FFT dimensions: (  36,  36,  36)

     Smooth grid:     6355 G-vectors     FFT dimensions: (  24,  24,  24)

     Dynamical RAM for                 wfc:       0.20 MB

     Dynamical RAM for     wfc (w. buffer):      17.33 MB

     Dynamical RAM for           str. fact:       0.54 MB

     Dynamical RAM for           local pot:       0.00 MB

     Dynamical RAM for          nlocal pot:       0.31 MB

     Dynamical RAM for                qrad:       6.42 MB

     Dynamical RAM for          rho,v,vnew:       1.88 MB

     Dynamical RAM for               rhoin:       0.63 MB

     Dynamical RAM for            rho*nmix:       4.36 MB

     Dynamical RAM for           G-vectors:       1.07 MB

     Dynamical RAM for          h,s,v(r/c):       0.05 MB

     Dynamical RAM for          <psi|beta>:       0.01 MB

     Dynamical RAM for                 psi:       0.41 MB

     Dynamical RAM for                hpsi:       0.41 MB

     Dynamical RAM for                spsi:       0.41 MB

     Dynamical RAM for      wfcinit/wfcrot:       0.41 MB

     Dynamical RAM for           addusdens:      50.92 MB

     Dynamical RAM for          addusforce:      51.06 MB

     Dynamical RAM for         addusstress:      54.73 MB

     Estimated static dynamical RAM per process >      30.79 MB

     Estimated max dynamical RAM per process >      89.88 MB

     Check: negative core charge=   -0.000003

     Initial potential from superposition of free atoms

     starting charge      25.9999, renormalised to      26.0000
     Starting wfcs are   17 randomized atomic wfcs
     Checking if some PAW data can be deallocated... 

     total cpu time spent up to now is        3.5 secs

     Self-consistent Calculation

     iteration #  1     ecut=    50.00 Ry     beta= 0.40
     Davidson diagonalization with overlap

---- Real-time Memory Report at c_bands before calling an iterative solver
            99 MiB given to the printing process from OS
             0 MiB allocation reported by mallinfo(arena+hblkhd)
          4687 MiB available memory on the node where the printing process lives
------------------
     ethr =  1.00E-02,  avg # of iterations =  2.9

     total cpu time spent up to now is        6.7 secs

     WARNING: integrated charge=    26.00000899, expected=    26.00000000

     total energy              =    -503.03993942 Ry
     estimated scf accuracy    <       0.46844753 Ry

     iteration #  2     ecut=    50.00 Ry     beta= 0.40
     Davidson diagonalization with overlap

---- Real-time Memory Report at c_bands before calling an iterative solver
           130 MiB given to the printing process from OS
             0 MiB allocation reported by mallinfo(arena+hblkhd)
          4670 MiB available memory on the node where the printing process lives
------------------
     ethr =  1.80E-03,  avg # of iterations =  2.1
     Minimization algorithm failed to find Fermi energy: reverting to bisection
     Possible cause: smearing is larger than the electronic band-gap.

     total cpu time spent up to now is        9.8 secs

     WARNING: integrated charge=    26.00000636, expected=    26.00000000

     total energy              =    -503.16689264 Ry
     estimated scf accuracy    <       0.07972547 Ry

     iteration #  3     ecut=    50.00 Ry     beta= 0.40
     Davidson diagonalization with overlap

---- Real-time Memory Report at c_bands before calling an iterative solver
           131 MiB given to the printing process from OS
             0 MiB allocation reported by mallinfo(arena+hblkhd)
          4667 MiB available memory on the node where the printing process lives
------------------
     ethr =  3.07E-04,  avg # of iterations =  2.2

     total cpu time spent up to now is       14.0 secs

     WARNING: integrated charge=    26.00481228, expected=    26.00000000

     total energy              =    -503.17130196 Ry
     estimated scf accuracy    <       0.00500819 Ry

     iteration #  4     ecut=    50.00 Ry     beta= 0.40
     Davidson diagonalization with overlap

---- Real-time Memory Report at c_bands before calling an iterative solver
           131 MiB given to the printing process from OS
             0 MiB allocation reported by mallinfo(arena+hblkhd)
          4664 MiB available memory on the node where the printing process lives
------------------
     ethr =  1.93E-05,  avg # of iterations =  1.9

     total cpu time spent up to now is       17.4 secs

     WARNING: integrated charge=    26.00802164, expected=    26.00000000

     total energy              =    -503.17131394 Ry
     estimated scf accuracy    <       0.00066616 Ry

     iteration #  5     ecut=    50.00 Ry     beta= 0.40
     Davidson diagonalization with overlap

---- Real-time Memory Report at c_bands before calling an iterative solver
           131 MiB given to the printing process from OS
             0 MiB allocation reported by mallinfo(arena+hblkhd)
          4665 MiB available memory on the node where the printing process lives
------------------
     ethr =  2.56E-06,  avg # of iterations =  2.2

     total cpu time spent up to now is       20.2 secs

     WARNING: integrated charge=    26.00853847, expected=    26.00000000

     total energy              =    -503.17133600 Ry
     estimated scf accuracy    <       0.00000756 Ry

     iteration #  6     ecut=    50.00 Ry     beta= 0.40
     Davidson diagonalization with overlap

---- Real-time Memory Report at c_bands before calling an iterative solver
           131 MiB given to the printing process from OS
             0 MiB allocation reported by mallinfo(arena+hblkhd)
          4666 MiB available memory on the node where the printing process lives
------------------
     ethr =  2.91E-08,  avg # of iterations =  2.1

     total cpu time spent up to now is       24.1 secs

     WARNING: integrated charge=    26.00873491, expected=    26.00000000

     total energy              =    -503.17134812 Ry
     estimated scf accuracy    <       0.00000817 Ry

     iteration #  7     ecut=    50.00 Ry     beta= 0.40
     Davidson diagonalization with overlap

---- Real-time Memory Report at c_bands before calling an iterative solver
           131 MiB given to the printing process from OS
             0 MiB allocation reported by mallinfo(arena+hblkhd)
          4663 MiB available memory on the node where the printing process lives
------------------
     ethr =  2.91E-08,  avg # of iterations =  1.8

     total cpu time spent up to now is       27.1 secs

     WARNING: integrated charge=    26.00878732, expected=    26.00000000

     total energy              =    -503.17134596 Ry
     estimated scf accuracy    <       0.00000079 Ry

     iteration #  8     ecut=    50.00 Ry     beta= 0.40
     Davidson diagonalization with overlap

---- Real-time Memory Report at c_bands before calling an iterative solver
           132 MiB given to the printing process from OS
             0 MiB allocation reported by mallinfo(arena+hblkhd)
          4662 MiB available memory on the node where the printing process lives
------------------
     ethr =  3.04E-09,  avg # of iterations =  2.0

     total cpu time spent up to now is       30.5 secs

     WARNING: integrated charge=    26.00877066, expected=    26.00000000

     total energy              =    -503.17134482 Ry
     estimated scf accuracy    <       0.00000003 Ry

     iteration #  9     ecut=    50.00 Ry     beta= 0.40
     Davidson diagonalization with overlap

---- Real-time Memory Report at c_bands before calling an iterative solver
           132 MiB given to the printing process from OS
             0 MiB allocation reported by mallinfo(arena+hblkhd)
          4663 MiB available memory on the node where the printing process lives
------------------
     ethr =  1.34E-10,  avg # of iterations =  2.0

     total cpu time spent up to now is       38.8 secs

     End of self-consistent calculation

          k = 0.0000 0.0000 0.0000 (   751 PWs)   bands (ev):

  -112.3532 -66.5342 -66.5342 -66.5342  -6.0123   5.9394   5.9394   7.0049
     7.0049   7.0049  11.2298  11.2298  11.2298  11.5375  26.4732  26.4732
    29.7134

     occupation numbers 
     1.0000   1.0000   1.0000   1.0000   1.0000   1.0000   1.0000   1.0000
     1.0000   1.0000   1.0000   1.0000   1.0000   1.0000   0.0000   0.0000
     0.0000

          k = 0.0000 0.0000 0.0833 (   771 PWs)   bands (ev):

  -112.3532 -66.5356 -66.5343 -66.5343  -5.9436   5.9481   5.9532   6.9593
     6.9593   7.0071  10.1233  11.3117  11.3117  12.5875  25.8072  26.5735
    29.6227

     occupation numbers 
     1.0000   1.0000   1.0000   1.0000   1.0000   1.0000   1.0000   1.0000
     1.0000   1.0000   1.0000   1.0000   1.0000   1.0396   0.0000   0.0000
     0.0000

          k = 0.0000 0.0000 0.1667 (   779 PWs)   bands (ev):

  -112.3530 -66.5388 -66.5341 -66.5341  -5.7481   5.9380   5.9722   6.8415
     6.8415   7.0132   8.9653  11.5318  11.5318  13.6737  24.4327  26.8765
    29.3512

     occupation numbers 
     1.0000   1.0000   1.0000   1.0000   1.0000   1.0000   1.0000   1.0000
     1.0000   1.0000   1.0000   1.0000   1.0000   0.0000   0.0000   0.0000
     0.0000

          k = 0.0000 0.0000 0.2500 (   799 PWs)   bands (ev):

  -112.3527 -66.5434 -66.5340 -66.5340  -5.4597   5.7111   6.0052   6.6933
     6.6933   7.0215   8.1567  11.8265  11.8265  14.6855  22.8411  27.3843
    28.9310

     occupation numbers 
     1.0000   1.0000   1.0000   1.0000   1.0000   1.0000   1.0000   1.0000
     1.0000   1.0000   1.0000   1.0000   1.0000   0.0000   0.0000   0.0000
     0.0000

          k = 0.0000 0.0000 0.3333 (   792 PWs)   bands (ev):

  -112.3524 -66.5476 -66.5337 -66.5337  -5.1407   5.1800   6.0384   6.5571
     6.5571   7.0300   7.8651  12.1184  12.1184  15.6848  21.2266  28.4642
    28.4649

     occupation numbers 
     1.0000   1.0000   1.0000   1.0000   1.0000   1.0000   1.0000   1.0000
     1.0000   1.0000   1.0000   1.0000   1.0000   0.0000   0.0000   0.0000
     0.0000

          k = 0.0000 0.0000 0.4167 (   800 PWs)   bands (ev):

  -112.3522 -66.5508 -66.5335 -66.5335  -4.8824   4.6530   6.0627   6.4635
     6.4635   7.0362   7.8523  12.3322  12.3322  16.7150  19.7397  28.1009
    28.1010

     occupation numbers 
     1.0000   1.0000   1.0000   1.0000   1.0000   1.0000   1.0000   1.0000
     1.0000   1.0000   1.0000   1.0004   1.0004   0.0000   0.0000   0.0000
     0.0000

          k = 0.0000 0.0000-0.5000 (   804 PWs)   bands (ev):

  -112.3521 -66.5520 -66.5335 -66.5335  -4.7814   4.4427   6.0716   6.4304
     6.4304   7.0385   7.8725  12.4108  12.4108  17.4442  18.8428  27.9638
    27.9638

     occupation numbers 
     1.0000   1.0000   1.0000   1.0000   1.0000   1.0000   1.0000   1.0000
     1.0000   1.0000   1.0000   1.0023   1.0023   0.0000   0.0000   0.0000
     0.0000

          k = 0.0000 0.0833 0.0833 (   772 PWs)   bands (ev):

  -112.3531 -66.5356 -66.5354 -66.5342  -5.8761   5.9576   5.9713   6.9090
     6.9401   6.9868   9.8232  11.0127  11.3870  13.2104  25.6871  26.1474
    29.5546

     occupation numbers 
     1.0000   1.0000   1.0000   1.0000   1.0000   1.0000   1.0000   1.0000
     1.0000   1.0000   1.0000   1.0000   1.0000   0.0208   0.0000   0.0000
     0.0000

          k = 0.0000 0.0833 0.1667 (   780 PWs)   bands (ev):

  -112.3529 -66.5387 -66.5353 -66.5341  -5.6841   5.9556   5.9969   6.7842
     6.8390   6.9856   8.9655  11.0472  11.5898  14.1696  24.4799  26.1742
    29.3431

     occupation numbers 
     1.0000   1.0000   1.0000   1.0000   1.0000   1.0000   1.0000   1.0000
     1.0000   1.0000   1.0000   1.0000   1.0000   0.0000   0.0000   0.0000
     0.0000

          k = 0.0000 0.0833 0.2500 (   788 PWs)   bands (ev):

  -112.3526 -66.5432 -66.5350 -66.5338  -5.4013   5.7543   6.0268   6.6525
     6.7004   6.9955   8.2077  11.3172  11.8619  15.1079  22.8668  26.4288
    28.9982

     occupation numbers 
     1.0000   1.0000   1.0000   1.0000   1.0000   1.0000   1.0000   1.0000
     1.0000   1.0000   1.0000   1.0000   1.0000   0.0000   0.0000   0.0000
     0.0000

          k = 0.0000 0.0833 0.3333 (   786 PWs)   bands (ev):

  -112.3523 -66.5474 -66.5347 -66.5335  -5.0893   5.2562   6.0624   6.5449
     6.5711   7.0064   7.8910  11.6258  12.1316  16.0414  21.2228  26.6834
    28.5977

     occupation numbers 
     1.0000   1.0000   1.0000   1.0000   1.0000   1.0000   1.0000   1.0000
     1.0000   1.0000   1.0000   1.0000   1.0000   0.0000   0.0000   0.0000
     0.0000

          k = 0.0000 0.0833 0.4167 (   792 PWs)   bands (ev):

  -112.3521 -66.5506 -66.5346 -66.5333  -4.8373   4.7562   6.0908   6.4599
     6.4817   7.0145   7.8587  11.8656  12.3291  17.0342  19.7019  26.8286
    28.2758

     occupation numbers 
     1.0000   1.0000   1.0000   1.0000   1.0000   1.0000   1.0000   1.0000
     1.0000   1.0000   1.0000   1.0000   1.0003   0.0000   0.0000   0.0000
     0.0000

          k = 0.0000 0.0833-0.5000 (   796 PWs)   bands (ev):

  -112.3520 -66.5519 -66.5344 -66.5333  -4.7390   4.5551   6.1020   6.4269
     6.4499   7.0175   7.8737  11.9563  12.4016  17.8781  18.6632  26.8633
    28.1528

     occupation numbers 
     1.0000   1.0000   1.0000   1.0000   1.0000   1.0000   1.0000   1.0000
     1.0000   1.0000   1.0000   1.0000   1.0019   0.0000   0.0000   0.0000
     0.0000

          k = 0.0000 0.1667 0.1667 (   782 PWs)   bands (ev):

  -112.3527 -66.5387 -66.5384 -66.5338  -5.5024   5.9528   6.0717   6.6526
     6.8082   6.9377   8.7963  10.4339  11.7465  15.0288  24.5728  24.6815
    29.2970

     occupation numbers 
     1.0000   1.0000   1.0000   1.0000   1.0000   1.0000   1.0000   1.0000
     1.0000   1.0000   1.0000   1.0000   1.0000   0.0000   0.0000   0.0000
     0.0000

          k = 0.0000 0.1667 0.2500 (   789 PWs)   bands (ev):

  -112.3524 -66.5429 -66.5383 -66.5336  -5.2362   5.8234   6.1141   6.5600
     6.7151   6.9303   8.3137  10.3675  11.9577  15.8644  22.8969  24.7949
    29.1734

     occupation numbers 
     1.0000   1.0000   1.0000   1.0000   1.0000   1.0000   1.0000   1.0000
     1.0000   1.0000   1.0000   1.0000   1.0000   0.0000   0.0000   0.0000
     0.0000

          k = 0.0000 0.1667 0.3333 (   782 PWs)   bands (ev):

  -112.3521 -66.5471 -66.5378 -66.5333  -4.9445   5.4514   6.1429   6.5184
     6.6088   6.9432   7.9619  10.5972  12.1670  16.6508  21.2206  24.9850
    28.9771

     occupation numbers 
     1.0000   1.0000   1.0000   1.0000   1.0000   1.0000   1.0000   1.0000
     1.0000   1.0000   1.0000   1.0000   1.0000   0.0000   0.0000   0.0000
     0.0000

          k = 0.0000 0.1667 0.4167 (   790 PWs)   bands (ev):

  -112.3519 -66.5503 -66.5376 -66.5331  -4.7109   5.0466   6.1745   6.4565
     6.5316   6.9556   7.8756  10.8383  12.3200  17.4497  19.7670  25.1339
    28.7891

     occupation numbers 
     1.0000   1.0000   1.0000   1.0000   1.0000   1.0000   1.0000   1.0000
     1.0000   1.0000   1.0000   1.0000   1.0003   0.0000   0.0000   0.0000
     0.0000

          k = 0.0000 0.1667-0.5000 (   794 PWs)   bands (ev):

  -112.3518 -66.5516 -66.5375 -66.5331  -4.6203   4.8775   6.1899   6.4238
     6.5038   6.9605   7.8752  10.9385  12.3761  18.1157  18.8583  25.1912
    28.7117

     occupation numbers 
     1.0000   1.0000   1.0000   1.0000   1.0000   1.0000   1.0000   1.0000
     1.0000   1.0000   1.0000   1.0000   1.0011   0.0000   0.0000   0.0000
     0.0000

          k = 0.0000 0.2500 0.2500 (   784 PWs)   bands (ev):

  -112.3521 -66.5427 -66.5423 -66.5333  -4.9961   5.8032   6.2518   6.4913
     6.7103   6.8704   8.3030   9.6574  12.0865  16.5267  22.4572  23.6695
    29.3837

     occupation numbers 
     1.0000   1.0000   1.0000   1.0000   1.0000   1.0000   1.0000   1.0000
     1.0000   1.0000   1.0000   1.0000   1.0000   0.0000   0.0000   0.0000
     0.0000

          k = 0.0000 0.2500 0.3333 (   784 PWs)   bands (ev):

  -112.3518 -66.5468 -66.5421 -66.5330  -4.7357   5.6579   6.3091   6.4989
     6.6573   6.8626   8.0525   9.5491  12.2137  16.9743  21.2370  23.6433
    29.5401

     occupation numbers 
     1.0000   1.0000   1.0000   1.0000   1.0000   1.0000   1.0000   1.0000
     1.0000   1.0000   1.0000   1.0000   1.0000   0.0000   0.0000   0.0000
     0.0000

          k = 0.0000 0.2500 0.4167 (   793 PWs)   bands (ev):

  -112.3516 -66.5500 -66.5419 -66.5329  -4.5296   5.4537   6.3247   6.4725
     6.6009   6.8769   7.8950   9.7089  12.3061  17.1867  20.3187  23.7975
    29.6052

     occupation numbers 
     1.0000   1.0000   1.0000   1.0000   1.0000   1.0000   1.0000   1.0000
     1.0000   1.0000   1.0000   1.0000   1.0002   0.0000   0.0000   0.0000
     0.0000

          k = 0.0000 0.2500-0.5000 (   782 PWs)   bands (ev):

  -112.3515 -66.5511 -66.5417 -66.5327  -4.4503   5.3550   6.3344   6.4429
     6.5790   6.8840   7.8685   9.7981  12.3399  17.2328  20.0010  23.8719
    29.6168

     occupation numbers 
     1.0000   1.0000   1.0000   1.0000   1.0000   1.0000   1.0000   1.0000
     1.0000   1.0000   1.0000   1.0000   1.0004   0.0000   0.0000   0.0000
     0.0000

          k = 0.0000 0.3333 0.3333 (   786 PWs)   bands (ev):

  -112.3515 -66.5465 -66.5463 -66.5328  -4.5120   5.7759   6.4954   6.5250
     6.6881   6.8027   8.0638   8.8436  12.2586  16.8135  21.2314  22.9957
    30.1609

     occupation numbers 
     1.0000   1.0000   1.0000   1.0000   1.0000   1.0000   1.0000   1.0000
     1.0000   1.0000   1.0000   1.0000   1.0000   0.0000   0.0000   0.0000
     0.0000

          k = 0.0000 0.3333 0.4167 (   786 PWs)   bands (ev):

  -112.3513 -66.5496 -66.5461 -66.5325  -4.3370   5.8282   6.5080   6.6020
     6.6708   6.8005   7.8988   8.7246  12.2905  16.4049  21.1601  22.9517
    29.4657

     occupation numbers 
     1.0000   1.0000   1.0000   1.0000   1.0000   1.0000   1.0000   1.0000
     1.0000   1.0000   1.0000   1.0000   1.0001   0.0000   0.0000   0.0000
     0.0000

          k = 0.0000 0.3333-0.5000 (   792 PWs)   bands (ev):

  -112.3513 -66.5508 -66.5461 -66.5325  -4.2703   5.8469   6.5157   6.5747
     6.6559   6.8087   7.8347   8.7646  12.3019  16.1983  21.1197  23.0209
    29.2010

     occupation numbers 
     1.0000   1.0000   1.0000   1.0000   1.0000   1.0000   1.0000   1.0000
     1.0000   1.0000   1.0000   1.0000   1.0002   0.0000   0.0000   0.0000
     0.0000

          k = 0.0000 0.4167 0.4167 (   788 PWs)   bands (ev):

  -112.3511 -66.5494 -66.5492 -66.5322  -4.1878   6.0535   6.5949   6.7155
     6.7530   6.8996   7.8300   8.1035  12.2779  15.6498  21.8501  22.5669
    28.7427

     occupation numbers 
     1.0000   1.0000   1.0000   1.0000   1.0000   1.0000   1.0000   1.0000
     1.0000   1.0000   1.0000   1.0000   1.0001   0.0000   0.0000   0.0000
     0.0000

          k = 0.0000 0.4167-0.5000 (   786 PWs)   bands (ev):

  -112.3510 -66.5504 -66.5492 -66.5321  -4.1313   6.1327   6.6662   6.7134
     6.7544   6.9725   7.7396   7.9721  12.2730  15.3401  22.0335  22.5623
    28.4096

     occupation numbers 
     1.0000   1.0000   1.0000   1.0000   1.0000   1.0000   1.0000   1.0000
     1.0000   1.0000   1.0000   1.0000   1.0001   0.0000   0.0000   0.0000
     0.0000

          k = 0.0000-0.5000-0.5000 (   784 PWs)   bands (ev):

  -112.3510 -66.5503 -66.5503 -66.5321  -4.0787   6.2082   6.7348   6.7348
     6.7959   7.2584   7.6168   7.6168  12.2622  15.0008  22.4181  22.4181
    28.0362

     occupation numbers 
     1.0000   1.0000   1.0000   1.0000   1.0000   1.0000   1.0000   1.0000
     1.0000   1.0000   1.0000   1.0000   1.0001   0.0000   0.0000   0.0000
     0.0000

          k = 0.0833 0.0833 0.0833 (   772 PWs)   bands (ev):

  -112.3530 -66.5356 -66.5353 -66.5353  -5.8097   5.9806   5.9806   6.8697
     6.9386   6.9386   9.6170  11.0994  11.0994  13.7064  25.7350  25.7350
    28.5692

     occupation numbers 
     1.0000   1.0000   1.0000   1.0000   1.0000   1.0000   1.0000   1.0000
     1.0000   1.0000   1.0000   1.0000   1.0000   0.0000   0.0000   0.0000
     0.0000

          k = 0.0833 0.0833 0.1667 (   783 PWs)   bands (ev):

  -112.3528 -66.5387 -66.5353 -66.5352  -5.6210   5.9925   6.0065   6.7630
     6.8139   6.9479   8.9441  10.9799  11.3321  14.5711  24.5175  25.8635
    28.2342

     occupation numbers 
     1.0000   1.0000   1.0000   1.0000   1.0000   1.0000   1.0000   1.0000
     1.0000   1.0000   1.0000   1.0000   1.0000   0.0000   0.0000   0.0000
     0.0000

          k = 0.0833 0.0833 0.2500 (   789 PWs)   bands (ev):

  -112.3525 -66.5431 -66.5350 -66.5350  -5.3436   5.8051   6.0431   6.6566
     6.6687   6.9628   8.2452  11.1513  11.6441  15.4417  22.9060  26.0229
    28.2090

     occupation numbers 
     1.0000   1.0000   1.0000   1.0000   1.0000   1.0000   1.0000   1.0000
     1.0000   1.0000   1.0000   1.0000   1.0000   0.0000   0.0000   0.0000
     0.0000

          k = 0.0833 0.0833 0.3333 (   789 PWs)   bands (ev):

  -112.3522 -66.5473 -66.5347 -66.5347  -5.0381   5.3336   6.0830   6.5095
     6.6074   6.9783   7.9174  11.4020  11.9541  16.3119  21.2506  26.1336
    28.2125

     occupation numbers 
     1.0000   1.0000   1.0000   1.0000   1.0000   1.0000   1.0000   1.0000
     1.0000   1.0000   1.0000   1.0000   1.0000   0.0000   0.0000   0.0000
     0.0000

          k = 0.0833 0.0833 0.4167 (   793 PWs)   bands (ev):

  -112.3520 -66.5506 -66.5345 -66.5344  -4.7921   4.8565   6.1173   6.4035
     6.5496   6.9898   7.8710  11.6100  12.1823  17.2579  19.7203  26.1519
    28.1902

     occupation numbers 
     1.0000   1.0000   1.0000   1.0000   1.0000   1.0000   1.0000   1.0000
     1.0000   1.0000   1.0000   1.0000   1.0000   0.0000   0.0000   0.0000
     0.0000

          k = 0.0833 0.0833-0.5000 (   794 PWs)   bands (ev):

  -112.3520 -66.5518 -66.5344 -66.5344  -4.6963   4.6636   6.1325   6.3633
     6.5251   6.9940   7.8822  11.6907  12.2664  18.2448  18.5176  26.1392
    28.1750

     occupation numbers 
     1.0000   1.0000   1.0000   1.0000   1.0000   1.0000   1.0000   1.0000
     1.0000   1.0000   1.0000   1.0000   1.0001   0.0000   0.0000   0.0000
     0.0000

          k = 0.0833 0.1667 0.1667 (   788 PWs)   bands (ev):

  -112.3526 -66.5387 -66.5383 -66.5351  -5.4422   6.0029   6.0796   6.6599
     6.7796   6.8833   8.7519  10.5360  11.4098  15.3232  24.5427  24.7300
    27.8581

     occupation numbers 
     1.0000   1.0000   1.0000   1.0000   1.0000   1.0000   1.0000   1.0000
     1.0000   1.0000   1.0000   1.0000   1.0000   0.0000   0.0000   0.0000
     0.0000

          k = 0.0833 0.1667 0.2500 (   793 PWs)   bands (ev):

  -112.3523 -66.5428 -66.5382 -66.5348  -5.1805   5.8912   6.1174   6.5732
     6.6900   6.8839   8.3083  10.4173  11.6602  16.0730  22.9753  24.7120
    28.0197

     occupation numbers 
     1.0000   1.0000   1.0000   1.0000   1.0000   1.0000   1.0000   1.0000
     1.0000   1.0000   1.0000   1.0000   1.0000   0.0000   0.0000   0.0000
     0.0000

          k = 0.0833 0.1667 0.3333 (   784 PWs)   bands (ev):

  -112.3520 -66.5470 -66.5377 -66.5345  -4.8942   5.5307   6.1503   6.4695
     6.6598   6.9067   7.9825  10.5681  11.9234  16.7833  21.3211  24.7451
    28.2768

     occupation numbers 
     1.0000   1.0000   1.0000   1.0000   1.0000   1.0000   1.0000   1.0000
     1.0000   1.0000   1.0000   1.0000   1.0000   0.0000   0.0000   0.0000
     0.0000

          k = 0.0833 0.1667 0.4167 (   789 PWs)   bands (ev):

  -112.3518 -66.5503 -66.5375 -66.5342  -4.6653   5.1369   6.1914   6.3606
     6.6339   6.9260   7.9032  10.7518  12.1215  17.5072  19.9017  24.7225
    28.4728

     occupation numbers 
     1.0000   1.0000   1.0000   1.0000   1.0000   1.0000   1.0000   1.0000
     1.0000   1.0000   1.0000   1.0000   1.0000   0.0000   0.0000   0.0000
     0.0000

          k = 0.0833 0.1667-0.5000 (   786 PWs)   bands (ev):

  -112.3517 -66.5514 -66.5374 -66.5341  -4.5766   4.9724   6.2206   6.3064
     6.6178   6.9333   7.9047  10.8304  12.1954  18.0542  19.0977  24.7017
    28.5479

     occupation numbers 
     1.0000   1.0000   1.0000   1.0000   1.0000   1.0000   1.0000   1.0000
     1.0000   1.0000   1.0000   1.0000   1.0000   0.0000   0.0000   0.0000
     0.0000

          k = 0.0833 0.2500 0.2500 (   788 PWs)   bands (ev):

  -112.3520 -66.5426 -66.5422 -66.5345  -4.9433   5.8758   6.2419   6.5043
     6.7069   6.8185   8.2537   9.7868  11.8166  16.6347  22.6176  23.5477
    28.2960

     occupation numbers 
     1.0000   1.0000   1.0000   1.0000   1.0000   1.0000   1.0000   1.0000
     1.0000   1.0000   1.0000   1.0000   1.0000   0.0000   0.0000   0.0000
     0.0000

          k = 0.0833 0.2500 0.3333 (   782 PWs)   bands (ev):

  -112.3517 -66.5467 -66.5420 -66.5341  -4.6865   5.7291   6.2856   6.4532
     6.7162   6.8276   8.0469   9.6343  11.9893  17.0179  21.3729  23.4486
    28.6962

     occupation numbers 
     1.0000   1.0000   1.0000   1.0000   1.0000   1.0000   1.0000   1.0000
     1.0000   1.0000   1.0000   1.0000   1.0000   0.0000   0.0000   0.0000
     0.0000

          k = 0.0833 0.2500 0.4167 (   787 PWs)   bands (ev):

  -112.3515 -66.5499 -66.5418 -66.5339  -4.4833   5.5211   6.2868   6.3806
     6.7166   6.8542   7.9429   9.7261  12.1220  17.2101  20.4317  23.4656
    29.0655

     occupation numbers 
     1.0000   1.0000   1.0000   1.0000   1.0000   1.0000   1.0000   1.0000
     1.0000   1.0000   1.0000   1.0000   1.0000   0.0000   0.0000   0.0000
     0.0000

          k = 0.0833 0.2500-0.5000 (   788 PWs)   bands (ev):

  -112.3515 -66.5511 -66.5417 -66.5339  -4.4053   5.4208   6.2793   6.3564
     6.7069   6.8652   7.9339   9.7883  12.1722  17.2579  20.1010  23.4684
    29.2462

     occupation numbers 
     1.0000   1.0000   1.0000   1.0000   1.0000   1.0000   1.0000   1.0000
     1.0000   1.0000   1.0000   1.0000   1.0000   0.0000   0.0000   0.0000
     0.0000

          k = 0.0833 0.3333 0.3333 (   780 PWs)   bands (ev):

  -112.3515 -66.5464 -66.5462 -66.5338  -4.4639   5.8233   6.4181   6.4513
     6.7588   6.8213   8.0386   9.0124  12.0691  16.8502  21.2848  22.7876
    29.2255

     occupation numbers 
     1.0000   1.0000   1.0000   1.0000   1.0000   1.0000   1.0000   1.0000
     1.0000   1.0000   1.0000   1.0000   1.0000   0.0000   0.0000   0.0000
     0.0000

          k = 0.0833 0.3333 0.4167 (   785 PWs)   bands (ev):

  -112.3513 -66.5495 -66.5460 -66.5336  -4.2899   5.8586   6.3657   6.4783
     6.7764   6.8673   7.9717   8.8489  12.1324  16.4682  21.1265  22.6665
    29.4973

     occupation numbers 
     1.0000   1.0000   1.0000   1.0000   1.0000   1.0000   1.0000   1.0000
     1.0000   1.0000   1.0000   1.0000   1.0000   0.0000   0.0000   0.0000
     0.0000

          k = 0.0833 0.3333-0.5000 (   790 PWs)   bands (ev):

  -112.3512 -66.5507 -66.5460 -66.5336  -4.2236   5.8744   6.3029   6.4958
     6.7681   6.8797   7.9598   8.8539  12.1570  16.2734  21.0663  22.6742
    30.1990

     occupation numbers 
     1.0000   1.0000   1.0000   1.0000   1.0000   1.0000   1.0000   1.0000
     1.0000   1.0000   1.0000   1.0000   1.0000   0.0000   0.0000   0.0000
     0.0000

          k = 0.0833 0.4167 0.4167 (   789 PWs)   bands (ev):

  -112.3511 -66.5493 -66.5492 -66.5334  -4.1400   6.0675   6.4358   6.4772
     6.7849   7.0355   7.9704   8.3337  12.1421  15.7353  21.6708  22.2995
    28.9550

     occupation numbers 
     1.0000   1.0000   1.0000   1.0000   1.0000   1.0000   1.0000   1.0000
     1.0000   1.0000   1.0000   1.0000   1.0000   0.0000   0.0000   0.0000
     0.0000

          k = 0.0833 0.4167-0.5000 (   792 PWs)   bands (ev):

  -112.3510 -66.5504 -66.5492 -66.5334  -4.0832   6.1704   6.3909   6.5084
     6.7632   7.1061   7.9710   8.2029  12.1462  15.4304  21.8245  22.2580
    28.6849

     occupation numbers 
     1.0000   1.0000   1.0000   1.0000   1.0000   1.0000   1.0000   1.0000
     1.0000   1.0000   1.0000   1.0000   1.0000   0.0000   0.0000   0.0000
     0.0000

          k = 0.0833-0.5000-0.5000 (   792 PWs)   bands (ev):

  -112.3509 -66.5503 -66.5503 -66.5333  -4.0300   6.2769   6.4748   6.4748
     6.7134   7.2596   7.9694   7.9694  12.1421  15.0921  22.1299  22.1299
    28.3581

     occupation numbers 
     1.0000   1.0000   1.0000   1.0000   1.0000   1.0000   1.0000   1.0000
     1.0000   1.0000   1.0000   1.0000   1.0000   0.0000   0.0000   0.0000
     0.0000

          k = 0.1667 0.1667 0.1667 (   802 PWs)   bands (ev):

  -112.3524 -66.5386 -66.5382 -66.5382  -5.2718   6.1008   6.1008   6.6524
     6.7460   6.7460   8.5749  10.8091  10.8091  15.9052  24.4376  24.4376
    26.6906

     occupation numbers 
     1.0000   1.0000   1.0000   1.0000   1.0000   1.0000   1.0000   1.0000
     1.0000   1.0000   1.0000   1.0000   1.0000   0.0000   0.0000   0.0000
     0.0000

          k = 0.1667 0.1667 0.2500 (   784 PWs)   bands (ev):

  -112.3521 -66.5425 -66.5379 -66.5378  -5.0231   6.0438   6.1291   6.5798
     6.6646   6.7779   8.2538  10.4400  11.1755  16.4816  23.1041  24.2312
    26.8343

     occupation numbers 
     1.0000   1.0000   1.0000   1.0000   1.0000   1.0000   1.0000   1.0000
     1.0000   1.0000   1.0000   1.0000   1.0000   0.0000   0.0000   0.0000
     0.0000

          k = 0.1667 0.1667 0.3333 (   781 PWs)   bands (ev):

  -112.3518 -66.5467 -66.5375 -66.5375  -4.7524   5.7298   6.1553   6.4333
     6.7338   6.8230   8.0123  10.3537  11.5429  17.0090  21.5399  23.9405
    27.5083

     occupation numbers 
     1.0000   1.0000   1.0000   1.0000   1.0000   1.0000   1.0000   1.0000
     1.0000   1.0000   1.0000   1.0000   1.0000   0.0000   0.0000   0.0000
     0.0000

          k = 0.1667 0.1667 0.4167 (   790 PWs)   bands (ev):

  -112.3516 -66.5500 -66.5374 -66.5373  -4.5373   5.3802   6.1697   6.3394
     6.7449   6.8578   7.9721  10.3877  11.8173  17.5163  20.2521  23.6695
    28.1667

     occupation numbers 
     1.0000   1.0000   1.0000   1.0000   1.0000   1.0000   1.0000   1.0000
     1.0000   1.0000   1.0000   1.0000   1.0000   0.0000   0.0000   0.0000
     0.0000

          k = 0.1667 0.1667-0.5000 (   782 PWs)   bands (ev):

  -112.3515 -66.5511 -66.5372 -66.5372  -4.4542   5.2325   6.1719   6.3097
     6.7369   6.8709   7.9876  10.4149  11.9196  17.8189  19.6614  23.5578
    28.4515

     occupation numbers 
     1.0000   1.0000   1.0000   1.0000   1.0000   1.0000   1.0000   1.0000
     1.0000   1.0000   1.0000   1.0000   1.0000   0.0000   0.0000   0.0000
     0.0000

          k = 0.1667 0.2500 0.2500 (   780 PWs)   bands (ev):

  -112.3518 -66.5422 -66.5420 -66.5375  -4.7947   6.0436   6.2020   6.5358
     6.7101   6.7259   8.1094  10.1285  11.2077  16.8424  22.9036  23.1855
    26.7472

     occupation numbers 
     1.0000   1.0000   1.0000   1.0000   1.0000   1.0000   1.0000   1.0000
     1.0000   1.0000   1.0000   1.0000   1.0000   0.0000   0.0000   0.0000
     0.0000

          k = 0.1667 0.2500 0.3333 (   784 PWs)   bands (ev):

  -112.3515 -66.5464 -66.5418 -66.5373  -4.5479   5.8921   6.1689   6.4689
     6.7640   6.8035   8.0022   9.8668  11.4815  17.0933  21.6272  22.8620
    27.3825

     occupation numbers 
     1.0000   1.0000   1.0000   1.0000   1.0000   1.0000   1.0000   1.0000
     1.0000   1.0000   1.0000   1.0000   1.0000   0.0000   0.0000   0.0000
     0.0000

          k = 0.1667 0.2500 0.4167 (   787 PWs)   bands (ev):

  -112.3513 -66.5497 -66.5415 -66.5370  -4.3533   5.6775   6.0989   6.4400
     6.8064   6.8189   8.0605   9.7640  11.7207  17.2428  20.6528  22.5674
    28.1850

     occupation numbers 
     1.0000   1.0000   1.0000   1.0000   1.0000   1.0000   1.0000   1.0000
     1.0000   1.0000   1.0000   1.0000   1.0000   0.0000   0.0000   0.0000
     0.0000

          k = 0.1667 0.2500-0.5000 (   784 PWs)   bands (ev):

  -112.3513 -66.5508 -66.5414 -66.5369  -4.2786   5.5749   6.0700   6.4353
     6.7938   6.8367   8.1185   9.7405  11.8144  17.2940  20.2971  22.4404
    28.5978

     occupation numbers 
     1.0000   1.0000   1.0000   1.0000   1.0000   1.0000   1.0000   1.0000
     1.0000   1.0000   1.0000   1.0000   1.0000   0.0000   0.0000   0.0000
     0.0000

          k = 0.1667 0.3333 0.3333 (   786 PWs)   bands (ev):

  -112.3513 -66.5462 -66.5460 -66.5370  -4.3288   5.8901   6.1929   6.4719
     6.8291   6.8463   8.0131   9.4454  11.6088  16.9415  21.2957  22.1997
    27.7657

     occupation numbers 
     1.0000   1.0000   1.0000   1.0000   1.0000   1.0000   1.0000   1.0000
     1.0000   1.0000   1.0000   1.0000   1.0000   0.0000   0.0000   0.0000
     0.0000

          k = 0.1667 0.3333 0.4167 (   782 PWs)   bands (ev):

  -112.3510 -66.5492 -66.5458 -66.5367  -4.1574   5.8641   6.1005   6.4811
     6.7807   6.9331   8.1779   9.2077  11.7516  16.6438  20.9386  21.8787
    28.4371

     occupation numbers 
     1.0000   1.0000   1.0000   1.0000   1.0000   1.0000   1.0000   1.0000
     1.0000   1.0000   1.0000   1.0000   1.0000   0.0000   0.0000   0.0000
     0.0000

          k = 0.1667 0.3333-0.5000 (   790 PWs)   bands (ev):

  -112.3510 -66.5504 -66.5458 -66.5366  -4.0921   5.8670   6.0224   6.4965
     6.7414   6.9598   8.3031   9.1181  11.8128  16.4866  20.8441  21.7412
    28.8998

     occupation numbers 
     1.0000   1.0000   1.0000   1.0000   1.0000   1.0000   1.0000   1.0000
     1.0000   1.0000   1.0000   1.0000   1.0000   0.0000   0.0000   0.0000
     0.0000

          k = 0.1667 0.4167 0.4167 (   789 PWs)   bands (ev):

  -112.3508 -66.5490 -66.5489 -66.5365  -4.0053   5.9411   6.1171   6.4657
     6.6642   7.1082   8.3685   8.8841  11.8084  15.9905  21.1079  21.5637
    28.8462

     occupation numbers 
     1.0000   1.0000   1.0000   1.0000   1.0000   1.0000   1.0000   1.0000
     1.0000   1.0000   1.0000   1.0000   1.0000   0.0000   0.0000   0.0000
     0.0000

          k = 0.1667 0.4167-0.5000 (   780 PWs)   bands (ev):

  -112.3508 -66.5500 -66.5488 -66.5364  -3.9475   6.0313   6.0421   6.4795
     6.5838   7.1724   8.5212   8.7466  11.8352  15.7042  21.2126  21.4273
    29.2334

     occupation numbers 
     1.0000   1.0000   1.0000   1.0000   1.0000   1.0000   1.0000   1.0000
     1.0000   1.0000   1.0000   1.0000   1.0000   0.0000   0.0000   0.0000
     0.0000

          k = 0.1667-0.5000-0.5000 (   788 PWs)   bands (ev):

  -112.3507 -66.5500 -66.5500 -66.5363  -3.8927   6.0810   6.0810   6.4671
     6.4748   7.2628   8.6343   8.6343  11.8461  15.3739  21.3434  21.3434
    29.3930

     occupation numbers 
     1.0000   1.0000   1.0000   1.0000   1.0000   1.0000   1.0000   1.0000
     1.0000   1.0000   1.0000   1.0000   1.0000   0.0000   0.0000   0.0000
     0.0000

          k = 0.2500 0.2500 0.2500 (   784 PWs)   bands (ev):

  -112.3515 -66.5419 -66.5417 -66.5417  -4.5795   6.1170   6.1170   6.6260
     6.6260   6.8029   7.9363  10.5849  10.5849  17.0114  22.6237  22.6237
    26.1142

     occupation numbers 
     1.0000   1.0000   1.0000   1.0000   1.0000   1.0000   1.0000   1.0000
     1.0000   1.0000   1.0000   1.0000   1.0000   0.0000   0.0000   0.0000
     0.0000

          k = 0.2500 0.2500 0.3333 (   785 PWs)   bands (ev):

  -112.3513 -66.5461 -66.5415 -66.5414  -4.3480   5.9894   6.0092   6.5910
     6.7494   6.8395   7.9651  10.1062  11.0486  17.1168  21.6337  21.9884
    26.6556

     occupation numbers 
     1.0000   1.0000   1.0000   1.0000   1.0000   1.0000   1.0000   1.0000
     1.0000   1.0000   1.0000   1.0000   1.0000   0.0000   0.0000   0.0000
     0.0000

          k = 0.2500 0.2500 0.4167 (   781 PWs)   bands (ev):

  -112.3510 -66.5492 -66.5413 -66.5411  -4.1661   5.7969   5.9250   6.5826
     6.7663   6.8352   8.2404   9.7738  11.4034  17.1785  20.7525  21.4779
    27.5310

     occupation numbers 
     1.0000   1.0000   1.0000   1.0000   1.0000   1.0000   1.0000   1.0000
     1.0000   1.0000   1.0000   1.0000   1.0000   0.0000   0.0000   0.0000
     0.0000

          k = 0.2500 0.2500-0.5000 (   780 PWs)   bands (ev):

  -112.3510 -66.5504 -66.5412 -66.5410  -4.0965   5.7063   5.8940   6.5817
     6.7310   6.8612   8.4110   9.6296  11.5383  17.2016  20.4161  21.2813
    27.9948

     occupation numbers 
     1.0000   1.0000   1.0000   1.0000   1.0000   1.0000   1.0000   1.0000
     1.0000   1.0000   1.0000   1.0000   1.0000   0.0000   0.0000   0.0000
     0.0000

          k = 0.2500 0.3333 0.3333 (   778 PWs)   bands (ev):

  -112.3510 -66.5458 -66.5456 -66.5411  -4.1337   5.8588   5.9575   6.6521
     6.7439   6.8668   8.1437  10.0144  11.0795  17.0383  21.0076  21.3543
    26.7062

     occupation numbers 
     1.0000   1.0000   1.0000   1.0000   1.0000   1.0000   1.0000   1.0000
     1.0000   1.0000   1.0000   1.0000   1.0000   0.0000   0.0000   0.0000
     0.0000

          k = 0.2500 0.3333 0.4167 (   784 PWs)   bands (ev):

  -112.3508 -66.5489 -66.5455 -66.5409  -3.9662   5.7694   5.8494   6.5720
     6.6854   6.9793   8.5370   9.7078  11.3372  16.8760  20.4821  20.8291
    27.1539

     occupation numbers 
     1.0000   1.0000   1.0000   1.0000   1.0000   1.0000   1.0000   1.0000
     1.0000   1.0000   1.0000   1.0000   1.0000   0.0000   0.0000   0.0000
     0.0000

          k = 0.2500 0.3333-0.5000 (   784 PWs)   bands (ev):

  -112.3507 -66.5500 -66.5454 -66.5408  -3.9023   5.7522   5.7780   6.5133
     6.6870   7.0176   8.8027   9.4994  11.4567  16.7822  20.3965  20.5255
    27.4260

     occupation numbers 
     1.0000   1.0000   1.0000   1.0000   1.0000   1.0000   1.0000   1.0000
     1.0000   1.0000   1.0000   1.0000   1.0000   0.0000   0.0000   0.0000
     0.0000

          k = 0.2500 0.4167 0.4167 (   787 PWs)   bands (ev):

  -112.3506 -66.5486 -66.5486 -66.5407  -3.8104   5.7205   5.8052   6.3464
     6.7139   7.1391   8.9286   9.5718  11.4253  16.4035  20.2220  20.5405
    26.9950

     occupation numbers 
     1.0000   1.0000   1.0000   1.0000   1.0000   1.0000   1.0000   1.0000
     1.0000   1.0000   1.0000   1.0000   1.0000   0.0000   0.0000   0.0000
     0.0000

          k = 0.2500 0.4167-0.5000 (   780 PWs)   bands (ev):

  -112.3505 -66.5496 -66.5485 -66.5405  -3.7511   5.7380   5.7509   6.2487
     6.7221   7.1978   9.2058   9.4171  11.4839  16.1645  20.2855  20.3072
    26.9594

     occupation numbers 
     1.0000   1.0000   1.0000   1.0000   1.0000   1.0000   1.0000   1.0000
     1.0000   1.0000   1.0000   1.0000   1.0000   0.0000   0.0000   0.0000
     0.0000

          k = 0.2500-0.5000-0.5000 (   788 PWs)   bands (ev):

  -112.3504 -66.5496 -66.5496 -66.5405  -3.6936   5.7457   5.7457   6.1177
     6.7317   7.2672   9.3920   9.3920  11.5076  15.8649  20.2600  20.2600
    26.7713

     occupation numbers 
     1.0000   1.0000   1.0000   1.0000   1.0000   1.0000   1.0000   1.0000
     1.0000   1.0000   1.0000   1.0000   1.0000   0.0000   0.0000   0.0000
     0.0000

          k = 0.3333 0.3333 0.3333 (   789 PWs)   bands (ev):

  -112.3507 -66.5456 -66.5453 -66.5453  -3.9246   5.7658   5.7658   6.4885
     6.8832   6.8832   8.5185  10.5991  10.5991  17.0752  20.4570  20.4570
    26.1986

     occupation numbers 
     1.0000   1.0000   1.0000   1.0000   1.0000   1.0000   1.0000   1.0000
     1.0000   1.0000   1.0000   1.0000   1.0000   0.0000   0.0000   0.0000
     0.0000

          k = 0.3333 0.3333 0.4167 (   787 PWs)   bands (ev):

  -112.3505 -66.5485 -66.5453 -66.5451  -3.7611   5.6434   5.6679   6.2588
     6.8943   7.0375   9.0280  10.1692  11.0599  17.0230  19.7572  19.9873
    26.0223

     occupation numbers 
     1.0000   1.0000   1.0000   1.0000   1.0000   1.0000   1.0000   1.0000
     1.0000   1.0000   1.0000   1.0000   1.0000   0.0000   0.0000   0.0000
     0.0000

          k = 0.3333 0.3333-0.5000 (   776 PWs)   bands (ev):

  -112.3504 -66.5495 -66.5450 -66.5449  -3.6987   5.6015   5.6217   6.1740
     6.8982   7.0908   9.3879   9.8684  11.2399  16.9754  19.4889  19.8209
    25.9827

     occupation numbers 
     1.0000   1.0000   1.0000   1.0000   1.0000   1.0000   1.0000   1.0000
     1.0000   1.0000   1.0000   1.0000   1.0000   0.0000   0.0000   0.0000
     0.0000

          k = 0.3333 0.4167 0.4167 (   779 PWs)   bands (ev):

  -112.3503 -66.5482 -66.5481 -66.5448  -3.6007   5.5396   5.5721   5.9755
     6.9723   7.1555   9.5533  10.2729  11.0974  16.9148  19.2641  19.4754
    25.1773

     occupation numbers 
     1.0000   1.0000   1.0000   1.0000   1.0000   1.0000   1.0000   1.0000
     1.0000   1.0000   1.0000   1.0000   1.0000   0.0000   0.0000   0.0000
     0.0000

          k = 0.3333 0.4167-0.5000 (   784 PWs)   bands (ev):

  -112.3502 -66.5493 -66.5481 -66.5448  -3.5396   5.5122   5.5310   5.8632
     6.9849   7.2128   9.9186  10.0889  11.2059  16.7818  19.1188  19.3302
    24.8509

     occupation numbers 
     1.0000   1.0000   1.0000   1.0000   1.0000   1.0000   1.0000   1.0000
     1.0000   1.0000   1.0000   1.0000   1.0000   0.0000   0.0000   0.0000
     0.0000

          k = 0.3333-0.5000-0.5000 (   780 PWs)   bands (ev):

  -112.3501 -66.5492 -66.5492 -66.5446  -3.4789   5.4992   5.4992   5.7256
     7.0015   7.2715  10.1481  10.1481  11.2313  16.5733  19.1363  19.1363
    24.4011

     occupation numbers 
     1.0000   1.0000   1.0000   1.0000   1.0000   1.0000   1.0000   1.0000
     1.0000   1.0000   1.0000   1.0000   1.0000   0.0000   0.0000   0.0000
     0.0000

          k = 0.4167 0.4167 0.4167 (   780 PWs)   bands (ev):

  -112.3500 -66.5479 -66.5479 -66.5479  -3.4363   5.4289   5.4289   5.6702
     7.1644   7.1644  10.1314  10.8368  10.8368  17.3004  18.6424  18.6424
    23.7717

     occupation numbers 
     1.0000   1.0000   1.0000   1.0000   1.0000   1.0000   1.0000   1.0000
     1.0000   1.0000   1.0000   1.0000   1.0000   0.0000   0.0000   0.0000
     0.0000

          k = 0.4167 0.4167-0.5000 (   782 PWs)   bands (ev):

  -112.3500 -66.5491 -66.5478 -66.5478  -3.3734   5.3807   5.3951   5.5492
     7.1673   7.2346  10.5129  10.5993  11.0627  17.3485  18.3185  18.5552
    23.2036

     occupation numbers 
     1.0000   1.0000   1.0000   1.0000   1.0000   1.0000   1.0000   1.0000
     1.0000   1.0000   1.0000   1.0000   1.0000   0.0000   0.0000   0.0000
     0.0000

          k = 0.4167-0.5000-0.5000 (   780 PWs)   bands (ev):

  -112.3499 -66.5489 -66.5489 -66.5477  -3.3099   5.3493   5.3493   5.4167
     7.2020   7.2748  10.7583  10.7583  11.0614  17.4143  18.2532  18.2532
    22.5099

     occupation numbers 
     1.0000   1.0000   1.0000   1.0000   1.0000   1.0000   1.0000   1.0000
     1.0000   1.0000   1.0000   1.0000   1.0000   0.0000   0.0000   0.0000
     0.0000

          k =-0.5000-0.5000-0.5000 (   840 PWs)   bands (ev):

  -112.3499 -66.5493 -66.5493 -66.5493  -3.2453   5.2988   5.2988   5.2988
     7.2757   7.2757  11.0051  11.0051  11.0051  17.9068  17.9068  17.9068
    21.6581

     occupation numbers 
     1.0000   1.0000   1.0000   1.0000   1.0000   1.0000   1.0000   1.0000
     1.0000   1.0000   1.0000   1.0000   1.0000   0.0000   0.0000   0.0000
     0.0000

[...]
     0.0000

          k = 0.1664 0.4160 0.4160 (   789 PWs)   bands (ev):

  -112.4328 -66.6307 -66.6306 -66.6184  -4.0719   5.8733   6.0477   6.3874
     6.5829   7.0243   8.3006   8.8141  11.7282  15.8884  20.9981  21.4521
    28.7039

     occupation numbers 
     1.0000   1.0000   1.0000   1.0000   1.0000   1.0000   1.0000   1.0000
     1.0000   1.0000   1.0000   1.0000   1.0000   0.0000   0.0000   0.0000
     0.0000

          k = 0.1664 0.4160-0.4992 (   780 PWs)   bands (ev):

  -112.4327 -66.6316 -66.6304 -66.6183  -4.0147   5.9637   5.9725   6.4012
     6.5034   7.0878   8.4509   8.6792  11.7551  15.6034  21.1016  21.3171
    29.0852

     occupation numbers 
     1.0000   1.0000   1.0000   1.0000   1.0000   1.0000   1.0000   1.0000
     1.0000   1.0000   1.0000   1.0000   1.0000   0.0000   0.0000   0.0000
     0.0000

          k = 0.1664-0.4992-0.4992 (   788 PWs)   bands (ev):

  -112.4327 -66.6316 -66.6316 -66.6182  -3.9605   6.0121   6.0121   6.3889
     6.3953   7.1768   8.5661   8.5661  11.7663  15.2743  21.2328  21.2328
    29.1026

     occupation numbers 
     1.0000   1.0000   1.0000   1.0000   1.0000   1.0000   1.0000   1.0000
     1.0000   1.0000   1.0000   1.0000   1.0000   0.0000   0.0000   0.0000
     0.0000

          k = 0.2496 0.2496 0.2496 (   784 PWs)   bands (ev):

  -112.4335 -66.6237 -66.6235 -66.6235  -4.6404   6.0453   6.0453   6.5460
     6.5460   6.7227   7.8675  10.5087  10.5087  16.9012  22.5113  22.5113
    25.9783

     occupation numbers 
     1.0000   1.0000   1.0000   1.0000   1.0000   1.0000   1.0000   1.0000
     1.0000   1.0000   1.0000   1.0000   1.0000   0.0000   0.0000   0.0000
     0.0000

          k = 0.2496 0.2496 0.3328 (   785 PWs)   bands (ev):

  -112.4332 -66.6278 -66.6233 -66.6232  -4.4111   5.9212   5.9384   6.5113
     6.6685   6.7565   7.8979  10.0321  10.9696  17.0073  21.5223  21.8808
    26.5174

     occupation numbers 
     1.0000   1.0000   1.0000   1.0000   1.0000   1.0000   1.0000   1.0000
     1.0000   1.0000   1.0000   1.0000   1.0000   0.0000   0.0000   0.0000
     0.0000

          k = 0.2496 0.2496 0.4160 (   781 PWs)   bands (ev):

  -112.4330 -66.6308 -66.6231 -66.6229  -4.2312   5.7333   5.8548   6.5030
     6.6839   6.7537   8.1676   9.7036  11.3222  17.0695  20.6421  21.3741
    27.3891

     occupation numbers 
     1.0000   1.0000   1.0000   1.0000   1.0000   1.0000   1.0000   1.0000
     1.0000   1.0000   1.0000   1.0000   1.0000   0.0000   0.0000   0.0000
     0.0000

          k = 0.2496 0.2496-0.4992 (   780 PWs)   bands (ev):

  -112.4329 -66.6320 -66.6230 -66.6228  -4.1624   5.6447   5.8241   6.5022
     6.6488   6.7796   8.3339   9.5626  11.4563  17.0929  20.3061  21.1789
    27.8504

     occupation numbers 
     1.0000   1.0000   1.0000   1.0000   1.0000   1.0000   1.0000   1.0000
     1.0000   1.0000   1.0000   1.0000   1.0000   0.0000   0.0000   0.0000
     0.0000

          k = 0.2496 0.3328 0.3328 (   778 PWs)   bands (ev):

  -112.4329 -66.6275 -66.6273 -66.6229  -4.1990   5.7904   5.8885   6.5722
     6.6620   6.7847   8.0784   9.9392  11.0002  16.9304  20.9028  21.2465
    26.5655

     occupation numbers 
     1.0000   1.0000   1.0000   1.0000   1.0000   1.0000   1.0000   1.0000
     1.0000   1.0000   1.0000   1.0000   1.0000   0.0000   0.0000   0.0000
     0.0000

          k = 0.2496 0.3328 0.4160 (   784 PWs)   bands (ev):

  -112.4327 -66.6305 -66.6272 -66.6227  -4.0332   5.7026   5.7820   6.4926
     6.6049   6.8964   8.4671   9.6350  11.2564  16.7700  20.3780  20.7241
    27.0107

     occupation numbers 
     1.0000   1.0000   1.0000   1.0000   1.0000   1.0000   1.0000   1.0000
     1.0000   1.0000   1.0000   1.0000   1.0000   0.0000   0.0000   0.0000
     0.0000

          k = 0.2496 0.3328-0.4992 (   784 PWs)   bands (ev):

  -112.4327 -66.6316 -66.6271 -66.6226  -3.9700   5.6880   5.7097   6.4343
     6.6066   6.9345   8.7278   9.4307  11.3751  16.6772  20.2896  20.4244
    27.2811

     occupation numbers 
     1.0000   1.0000   1.0000   1.0000   1.0000   1.0000   1.0000   1.0000
     1.0000   1.0000   1.0000   1.0000   1.0000   0.0000   0.0000   0.0000
     0.0000

          k = 0.2496 0.4160 0.4160 (   787 PWs)   bands (ev):

  -112.4325 -66.6303 -66.6302 -66.6225  -3.8790   5.6540   5.7384   6.2699
     6.6334   7.0545   8.8582   9.4979  11.3446  16.3015  20.1193  20.4359
    26.8512

     occupation numbers 
     1.0000   1.0000   1.0000   1.0000   1.0000   1.0000   1.0000   1.0000
     1.0000   1.0000   1.0000   1.0000   1.0000   0.0000   0.0000   0.0000
     0.0000

          k = 0.2496 0.4160-0.4992 (   780 PWs)   bands (ev):

  -112.4325 -66.6313 -66.6301 -66.6224  -3.8204   5.6711   5.6853   6.1732
     6.6415   7.1126   9.1324   9.3454  11.4030  16.0641  20.1830  20.2029
    26.8154

     occupation numbers 
     1.0000   1.0000   1.0000   1.0000   1.0000   1.0000   1.0000   1.0000
     1.0000   1.0000   1.0000   1.0000   1.0000   0.0000   0.0000   0.0000
     0.0000

          k = 0.2496-0.4992-0.4992 (   788 PWs)   bands (ev):

  -112.4324 -66.6313 -66.6313 -66.6223  -3.7635   5.6798   5.6798   6.0433
     6.6510   7.1811   9.3190   9.3190  11.4270  15.7664  20.1567  20.1567
    26.6278

     occupation numbers 
     1.0000   1.0000   1.0000   1.0000   1.0000   1.0000   1.0000   1.0000
     1.0000   1.0000   1.0000   1.0000   1.0000   0.0000   0.0000   0.0000
     0.0000

          k = 0.3328 0.3328 0.3328 (   789 PWs)   bands (ev):

  -112.4327 -66.6273 -66.6271 -66.6271  -3.9920   5.6983   5.6983   6.4110
     6.8010   6.8010   8.4518  10.5206  10.5206  16.9683  20.3552  20.3552
    26.0561

     occupation numbers 
     1.0000   1.0000   1.0000   1.0000   1.0000   1.0000   1.0000   1.0000
     1.0000   1.0000   1.0000   1.0000   1.0000   0.0000   0.0000   0.0000
     0.0000

          k = 0.3328 0.3328 0.4160 (   787 PWs)   bands (ev):

  -112.4325 -66.6301 -66.6270 -66.6268  -3.8303   5.5767   5.6024   6.1841
     6.8119   6.9540   8.9572  10.0931  10.9788  16.9178  19.6601  19.8859
    25.8797

     occupation numbers 
     1.0000   1.0000   1.0000   1.0000   1.0000   1.0000   1.0000   1.0000
     1.0000   1.0000   1.0000   1.0000   1.0000   0.0000   0.0000   0.0000
     0.0000

          k = 0.3328 0.3328-0.4992 (   776 PWs)   bands (ev):

  -112.4324 -66.6311 -66.6267 -66.6266  -3.7686   5.5351   5.5573   6.1000
     6.8158   7.0069   9.3124   9.7964  11.1577  16.8711  19.3935  19.7192
    25.8404

     occupation numbers 
     1.0000   1.0000   1.0000   1.0000   1.0000   1.0000   1.0000   1.0000
     1.0000   1.0000   1.0000   1.0000   1.0000   0.0000   0.0000   0.0000
     0.0000

          k = 0.3328 0.4160 0.4160 (   779 PWs)   bands (ev):

  -112.4323 -66.6298 -66.6298 -66.6266  -3.6717   5.4744   5.5069   5.9044
     6.8893   7.0707   9.4800  10.1951  11.0160  16.8129  19.1680  19.3777
    25.0367

     occupation numbers 
     1.0000   1.0000   1.0000   1.0000   1.0000   1.0000   1.0000   1.0000
     1.0000   1.0000   1.0000   1.0000   1.0000   0.0000   0.0000   0.0000
     0.0000

          k = 0.3328 0.4160-0.4992 (   784 PWs)   bands (ev):

  -112.4322 -66.6309 -66.6298 -66.6265  -3.6113   5.4471   5.4667   5.7931
     6.9017   7.1274   9.8419  10.0132  11.1239  16.6822  19.0235  19.2326
    24.7113

     occupation numbers 
     1.0000   1.0000   1.0000   1.0000   1.0000   1.0000   1.0000   1.0000
     1.0000   1.0000   1.0000   1.0000   1.0000   0.0000   0.0000   0.0000
     0.0000

          k = 0.3328-0.4992-0.4992 (   780 PWs)   bands (ev):

  -112.4321 -66.6308 -66.6308 -66.6264  -3.5512   5.4349   5.4349   5.6567
     6.9182   7.1855  10.0706  10.0706  11.1497  16.4766  19.0402  19.0402
    24.2624

     occupation numbers 
     1.0000   1.0000   1.0000   1.0000   1.0000   1.0000   1.0000   1.0000
     1.0000   1.0000   1.0000   1.0000   1.0000   0.0000   0.0000   0.0000
     0.0000

          k = 0.4160 0.4160 0.4160 (   780 PWs)   bands (ev):

  -112.4320 -66.6296 -66.6295 -66.6295  -3.5092   5.3647   5.3647   5.6030
     7.0795   7.0795  10.0548  10.7556  10.7556  17.2004  18.5500  18.5500
    23.6335

     occupation numbers 
     1.0000   1.0000   1.0000   1.0000   1.0000   1.0000   1.0000   1.0000
     1.0000   1.0000   1.0000   1.0000   1.0000   0.0000   0.0000   0.0000
     0.0000

          k = 0.4160 0.4160-0.4992 (   782 PWs)   bands (ev):

  -112.4320 -66.6307 -66.6295 -66.6295  -3.4471   5.3168   5.3315   5.4832
     7.0823   7.1490  10.4331  10.5200  10.9800  17.2513  18.2283  18.4627
    23.0659

     occupation numbers 
     1.0000   1.0000   1.0000   1.0000   1.0000   1.0000   1.0000   1.0000
     1.0000   1.0000   1.0000   1.0000   1.0000   0.0000   0.0000   0.0000
     0.0000

          k = 0.4160-0.4992-0.4992 (   780 PWs)   bands (ev):

  -112.4319 -66.6306 -66.6306 -66.6294  -3.3843   5.2860   5.2860   5.3521
     7.1167   7.1887  10.6771  10.6771  10.9789  17.3215  18.1627  18.1627
    22.3717

     occupation numbers 
     1.0000   1.0000   1.0000   1.0000   1.0000   1.0000   1.0000   1.0000
     1.0000   1.0000   1.0000   1.0000   1.0000   0.0000   0.0000   0.0000
     0.0000

          k =-0.4992-0.4992-0.4992 (   840 PWs)   bands (ev):

  -112.4319 -66.6310 -66.6310 -66.6310  -3.3205   5.2358   5.2358   5.2358
     7.1895   7.1895  10.9223  10.9223  10.9223  17.8186  17.8186  17.8186
    21.5169

     occupation numbers 
     1.0000   1.0000   1.0000   1.0000   1.0000   1.0000   1.0000   1.0000
     1.0000   1.0000   1.0000   1.0000   1.0000   0.0000   0.0000   0.0000
     0.0000

     the Fermi energy is    12.8977 ev

     WARNING: integrated charge=    26.00881441, expected=    26.00000000

!    total energy              =    -503.17131025 Ry
     estimated scf accuracy    <          2.4E-11 Ry
     smearing contrib. (-TS)   =       0.00000916 Ry
     internal energy E=F+TS    =    -503.17131941 Ry

     The total energy is F=E-TS. E is the sum of the following terms:
     one-electron contribution =    -353.79939602 Ry
     hartree contribution      =     190.46184274 Ry
     xc contribution           =     -49.70289760 Ry
     ewald contribution        =    -280.59950176 Ry
     one-center paw contrib.   =      -9.53136677 Ry
      -> PAW hartree energy AE =      25.57582573 Ry
      -> PAW hartree energy PS =     -25.46222115 Ry
      -> PAW xc energy AE      =     -16.58983296 Ry
      -> PAW xc energy PS      =       6.94486161 Ry
      -> total E_H with PAW    =     190.57544732 Ry
      -> total E_XC with PAW   =     -59.34786895 Ry

     convergence has been achieved in  11 iterations

     Forces acting on atoms (cartesian axes, Ry/au):

     atom    1 type  2   force =     0.00000000    0.00000000    0.00000000
     atom    2 type  1   force =     0.00000000    0.00000000    0.00000000
     The non-local contrib.  to forces
     atom    1 type  2   force =     0.00000000    0.00000000    0.00000000
     atom    2 type  1   force =     0.00000000    0.00000000    0.00000000
     The ionic contribution  to forces
     atom    1 type  2   force =    -0.00000000   -0.00000000   -0.00000000
     atom    2 type  1   force =     0.00000000    0.00000000    0.00000000
     The local contribution  to forces
     atom    1 type  2   force =     0.00000000    0.00000000    0.00000000
     atom    2 type  1   force =     0.00000000    0.00000000    0.00000000
     The core correction contribution to forces
     atom    1 type  2   force =     0.00000000    0.00000000    0.00000000
     atom    2 type  1   force =    -0.00000000   -0.00000000   -0.00000000
     The Hubbard contrib.    to forces
     atom    1 type  2   force =     0.00000000    0.00000000    0.00000000
     atom    2 type  1   force =     0.00000000    0.00000000    0.00000000
     The SCF correction term to forces
     atom    1 type  2   force =    -0.00000000    0.00000000   -0.00000000
     atom    2 type  1   force =    -0.00000000   -0.00000000    0.00000000

     Total force =     0.000000     Total SCF correction =     0.000000


     Computing stress (Cartesian axis) and pressure

          total   stress  (Ry/bohr**3)                   (kbar)     P=       -1.20
  -0.00000815   0.00000000   0.00000000           -1.20        0.00        0.00
   0.00000000  -0.00000815   0.00000000            0.00       -1.20        0.00
   0.00000000   0.00000000  -0.00000815            0.00        0.00       -1.20

     kinetic stress (kbar)  42263.24      0.00      0.00
                                0.00  42263.24      0.00
                                0.00      0.00  42263.24

     local   stress (kbar)   9747.10      0.00     -0.00
                                0.00   9747.10      0.00
                               -0.00      0.00   9747.10

     nonloc. stress (kbar)   -941.00      0.00      0.00
                                0.00   -941.00      0.00
                                0.00      0.00   -941.00

     hartree stress (kbar)  70631.53     -0.00     -0.00
                               -0.00  70631.53     -0.00
                               -0.00     -0.00  70631.53

     exc-cor stress (kbar) -17170.91     -0.00     -0.00
                               -0.00 -17170.91      0.00
                               -0.00      0.00 -17170.91

     corecor stress (kbar)   -472.67     -0.00      0.00
                               -0.00   -472.67     -0.00
                                0.00     -0.00   -472.67

     ewald   stress (kbar)-104058.49     -0.00     -0.00
                               -0.00-104058.49     -0.00
                               -0.00     -0.00-104058.49

     hubbard stress (kbar)      0.00      0.00      0.00
                                0.00      0.00      0.00
                                0.00      0.00      0.00

     DFT-D   stress (kbar)      0.00      0.00      0.00
                                0.00      0.00      0.00
                                0.00      0.00      0.00

     XDM     stress (kbar)      0.00      0.00      0.00
                                0.00      0.00      0.00
                                0.00      0.00      0.00

     dft-nl  stress (kbar)      0.00      0.00      0.00
                                0.00      0.00      0.00
                                0.00      0.00      0.00

     TS-vdW  stress (kbar)      0.00      0.00      0.00
                                0.00      0.00      0.00
                                0.00      0.00      0.00

     MDB     stress (kbar)      0.00      0.00      0.00
                                0.00      0.00      0.00
                                0.00      0.00      0.00

     3D-RISM stress (kbar)      0.00      0.00      0.00
                                0.00      0.00      0.00
                                0.00      0.00      0.00

     Energy error            =      3.5E-05 Ry
     Gradient error          =      0.0E+00 Ry/Bohr
     Cell gradient error     =      1.2E+00 kbar

     number of scf cycles    =  50
     number of bfgs steps    =   1

     enthalpy           old  =    -503.1713449432 Ry
     enthalpy           new  =    -503.1713102487 Ry

     CASE: enthalpy          _new > enthalpy          _old

     new trust radius        =       0.0008811956 bohr

     The maximum number of steps has been reached.

     End of BFGS Geometry Optimization
     new unit-cell volume =    131.78074 a.u.^3 (    19.52789 Ang^3 )
     density =      6.92003 g/cm^3

CELL_PARAMETERS (angstrom)
   2.692888977   0.000000000   0.000000000
   0.000000000   2.692888977   0.000000000
   0.000000000   0.000000000   2.692888977

ATOMIC_POSITIONS (crystal)
Zn               0.0000000000        0.0000000000        0.0000000000
O                0.5000000000        0.5000000000        0.5000000000



     Writing config-only to output data dir ./temp_cubic/aiida.save/ :
     XML data file
     NEW-OLD atomic charge density approx. for the potential

     Check: negative core charge=   -0.000003
     extrapolated charge   26.00881, renormalised to   26.00000

     Writing all to output data dir ./temp_cubic/aiida.save/ :
     XML data file, charge density, pseudopotentials, collected wavefunctions

     init_run     :     62.84s CPU      3.08s WALL (       1 calls)
     electrons    :  56904.07s CPU   2421.08s WALL (      50 calls)
     update_pot   :     54.39s CPU      2.90s WALL (      50 calls)
     forces       :    559.50s CPU     24.79s WALL (      50 calls)
     stress       :    730.31s CPU     42.12s WALL (      50 calls)

     Called by init_run:
     wfcinit      :     58.41s CPU      2.44s WALL (       1 calls)
     wfcinit:atom :      0.92s CPU      0.04s WALL (      84 calls)
     wfcinit:wfcr :     56.92s CPU      2.32s WALL (      84 calls)
     potinit      :      1.79s CPU      0.12s WALL (       1 calls)
     hinit0       :      1.83s CPU      0.45s WALL (       1 calls)

     Called by electrons:
     c_bands      :  49934.94s CPU   2099.66s WALL (     562 calls)
     sum_band     :   6376.88s CPU    285.19s WALL (     562 calls)
     v_of_rho     :     95.14s CPU      4.98s WALL (     580 calls)
     v_h          :     22.15s CPU      0.93s WALL (     580 calls)
     v_xc         :     85.18s CPU      4.69s WALL (     680 calls)
     newd         :    332.06s CPU     23.44s WALL (     580 calls)
     PAW_pot      :    179.95s CPU      7.58s WALL (     630 calls)
     mix_rho      :     17.05s CPU      1.33s WALL (     562 calls)

     Called by c_bands:
     init_us_2    :    718.76s CPU     32.34s WALL (  107100 calls)
     cegterg      :  46737.37s CPU   1973.64s WALL (   47208 calls)

     Called by sum_band:
     sum_band:wei :     21.69s CPU      0.72s WALL (     562 calls)
     sum_band:loo :   6115.58s CPU    256.82s WALL (     562 calls)
     sum_band:buf :     26.03s CPU      1.35s WALL (   47208 calls)
     sum_band:ini :    238.63s CPU      9.98s WALL (   47208 calls)
     sum_band:cal :    640.33s CPU     27.03s WALL (   51408 calls)
     sum_band:bec :    329.38s CPU     14.08s WALL (   51408 calls)
     addusdens    :    224.99s CPU     25.41s WALL (     562 calls)
                                        0.00s GPU  (     562 calls)
     addusd:skk   :      1.90s CPU      0.06s WALL (    1124 calls)
                                        0.00s GPU  (    1124 calls)

     Called by *egterg:
     cdiaghg      :   1014.24s CPU     42.83s WALL (  141030 calls)
     cegterg:over :   2475.88s CPU    103.19s WALL (  100710 calls)
     cegterg:upda :   2204.21s CPU     82.59s WALL (  100710 calls)
     cegterg:last :   3380.88s CPU    133.40s WALL (   91947 calls)
     h_psi        :  33292.45s CPU   1426.06s WALL (  148002 calls)
     s_psi        :   1702.03s CPU     73.71s WALL (  148002 calls)
     g_psi        :    673.07s CPU     27.65s WALL (  100710 calls)

     Called by h_psi:
     h_psi:calbec :   1570.96s CPU     67.95s WALL (  148002 calls)
     vloc_psi     :  29150.65s CPU   1247.64s WALL (  148002 calls)
     add_vuspsi   :   1729.64s CPU     73.75s WALL (  148002 calls)

     General routines
     calbec       :   2450.59s CPU    105.10s WALL (  220410 calls)
     fft          :     76.50s CPU      4.00s WALL (    8773 calls)
     ffts         :      3.10s CPU      0.14s WALL (    1142 calls)
     fftw         :   9867.55s CPU    423.42s WALL ( 4935052 calls)
     interpolate  :     10.31s CPU      0.38s WALL (     580 calls)
     davcio       :      0.25s CPU      0.10s WALL (      84 calls)

     Parallel routines

     PAW routines
     PAW_pot      :    179.95s CPU      7.58s WALL (     630 calls)
     PAW_symme    :      0.96s CPU      0.03s WALL (    1192 calls)

     PWSCF        :     16h16m CPU  41m48.50s WALL


   This run was terminated on:  23:14:49   8Jun2024            

=------------------------------------------------------------------------------=
   JOB DONE.
=------------------------------------------------------------------------------=
