
     Program PWSCF v.7.3.1 starts on  7Jun2024 at 21:36: 5 

     This program is part of the open-source Quantum ESPRESSO suite
     for quantum simulation of materials; please cite
         "P. Giannozzi et al., J. Phys.:Condens. Matter 21 395502 (2009);
         "P. Giannozzi et al., J. Phys.:Condens. Matter 29 465901 (2017);
         "P. Giannozzi et al., J. Chem. Phys. 152 154105 (2020);
          URL http://www.quantum-espresso.org", 
     in publications or presentations arising from this work. More details at
     http://www.quantum-espresso.org/quote

     Parallel version (MPI & OpenMP), running on      24 processor cores
     Number of MPI processes:                 1
     Threads/MPI process:                    24

     MPI processes distributed on     1 nodes
     4534 MiB available memory on the printing compute node when the environment starts

     Waiting for input...
     Reading input from standard input

     Current dimensions of program PWSCF are:
     Max number of different atomic species (ntypx) = 10
     Max number of k-points (npk) =  40000
     Max angular momentum in pseudopotentials (lmaxx) =  4
     file O.pbe-n-kjpaw_psl.0.1.UPF: wavefunction(s)  2P renormalized
     Message from routine setup:
     using ibrav=0 with symmetry is DISCOURAGED, use correct ibrav instead

     Subspace diagonalization in iterative solution of the eigenvalue problem:
     a serial algorithm will be used


     G-vector sticks info
     --------------------
     sticks:   dense  smooth     PW     G-vecs:    dense   smooth      PW
     Sum         885     437    145                20005     7075    1357

     Using Slab Decomposition



     bravais-lattice index     =            0
     lattice parameter (alat)  =       5.2903  a.u.
     unit-cell volume          =     148.0649 (a.u.)^3
     number of atoms/cell      =            2
     number of atomic types    =            2
     number of electrons       =        26.00
     number of Kohn-Sham states=           17
     kinetic-energy cutoff     =      50.0000  Ry
     charge density cutoff     =     400.0000  Ry
     scf convergence threshold =      1.0E-08
     mixing beta               =       0.4000
     number of iterations used =            8  plain     mixing
     Exchange-correlation= SLA  PW   PBE  PBE
                           (   1   4   3   4   0   0   0)

     celldm(1)=   5.290345  celldm(2)=   0.000000  celldm(3)=   0.000000
     celldm(4)=   0.000000  celldm(5)=   0.000000  celldm(6)=   0.000000

     crystal axes: (cart. coord. in units of alat)
               a(1) = (   1.000000   0.000000   0.000000 )  
               a(2) = (   0.000000   1.000000   0.000000 )  
               a(3) = (   0.000000   0.000000   1.000000 )  

     reciprocal axes: (cart. coord. in units 2 pi/alat)
               b(1) = (  1.000000  0.000000  0.000000 )  
               b(2) = (  0.000000  1.000000  0.000000 )  
               b(3) = (  0.000000  0.000000  1.000000 )  


     PseudoPot. # 1 for O  read from file:
     ../SSSP_1.3.0_PBE_efficiency/O.pbe-n-kjpaw_psl.0.1.UPF
     MD5 check sum: 0234752ac141de4415c5fc33072bef88
     Pseudo is Projector augmented-wave + core cor, Zval =  6.0
     Generated using "atomic" code by A. Dal Corso  v.5.0.99 svn rev. 10869
     Shape of augmentation charge: BESSEL
     Using radial grid of 1095 points,  4 beta functions with: 
                l(1) =   0
                l(2) =   0
                l(3) =   1
                l(4) =   1
     Q(r) pseudized with 0 coefficients 


     PseudoPot. # 2 for Zn read from file:
     ../SSSP_1.3.0_PBE_efficiency/Zn_pbe_v1.uspp.F.UPF
     MD5 check sum: df62231357ef9e81f77b2b3087fa5675
     Pseudo is Ultrasoft, Zval = 20.0
     Generated by new atomic code, or converted to UPF format
     Using radial grid of  943 points,  6 beta functions with: 
                l(1) =   0
                l(2) =   0
                l(3) =   1
                l(4) =   1
                l(5) =   2
                l(6) =   2
     Q(r) pseudized with  8 coefficients,  rinner =    1.100   1.100   1.100
                                                       1.100   1.100

     atomic species   valence    mass     pseudopotential
     O                 6.00    15.99940     O ( 1.00)
     Zn               20.00    65.38000     Zn( 1.00)

     48 Sym. Ops., with inversion, found


                                    s                        frac. trans.

      isym =  1     identity                                     

 cryst.   s( 1) = (     1          0          0      )
                  (     0          1          0      )
                  (     0          0          1      )

 cart.    s( 1) = (  1.0000000  0.0000000  0.0000000 )
                  (  0.0000000  1.0000000  0.0000000 )
                  (  0.0000000  0.0000000  1.0000000 )


      isym =  2     180 deg rotation - cart. axis [0,0,1]        

 cryst.   s( 2) = (    -1          0          0      )
                  (     0         -1          0      )
                  (     0          0          1      )

 cart.    s( 2) = ( -1.0000000  0.0000000  0.0000000 )
                  (  0.0000000 -1.0000000  0.0000000 )
                  (  0.0000000  0.0000000  1.0000000 )


      isym =  3     180 deg rotation - cart. axis [0,1,0]        

 cryst.   s( 3) = (    -1          0          0      )
                  (     0          1          0      )
                  (     0          0         -1      )

 cart.    s( 3) = ( -1.0000000  0.0000000  0.0000000 )
                  (  0.0000000  1.0000000  0.0000000 )
                  (  0.0000000  0.0000000 -1.0000000 )


      isym =  4     180 deg rotation - cart. axis [1,0,0]        

 cryst.   s( 4) = (     1          0          0      )
                  (     0         -1          0      )
                  (     0          0         -1      )

 cart.    s( 4) = (  1.0000000  0.0000000  0.0000000 )
                  (  0.0000000 -1.0000000  0.0000000 )
                  (  0.0000000  0.0000000 -1.0000000 )


      isym =  5     180 deg rotation - cart. axis [1,1,0]        

 cryst.   s( 5) = (     0          1          0      )
                  (     1          0          0      )
                  (     0          0         -1      )

 cart.    s( 5) = (  0.0000000  1.0000000  0.0000000 )
                  (  1.0000000  0.0000000  0.0000000 )
                  (  0.0000000  0.0000000 -1.0000000 )


      isym =  6     180 deg rotation - cart. axis [1,-1,0]       

 cryst.   s( 6) = (     0         -1          0      )
                  (    -1          0          0      )
                  (     0          0         -1      )

 cart.    s( 6) = (  0.0000000 -1.0000000  0.0000000 )
                  ( -1.0000000  0.0000000  0.0000000 )
                  (  0.0000000  0.0000000 -1.0000000 )


      isym =  7      90 deg rotation - cart. axis [0,0,-1]       

 cryst.   s( 7) = (     0         -1          0      )
                  (     1          0          0      )
                  (     0          0          1      )

 cart.    s( 7) = (  0.0000000  1.0000000  0.0000000 )
                  ( -1.0000000  0.0000000  0.0000000 )
                  (  0.0000000  0.0000000  1.0000000 )


      isym =  8      90 deg rotation - cart. axis [0,0,1]        

 cryst.   s( 8) = (     0          1          0      )
                  (    -1          0          0      )
                  (     0          0          1      )

 cart.    s( 8) = (  0.0000000 -1.0000000  0.0000000 )
                  (  1.0000000  0.0000000  0.0000000 )
                  (  0.0000000  0.0000000  1.0000000 )


      isym =  9     180 deg rotation - cart. axis [1,0,1]        

 cryst.   s( 9) = (     0          0          1      )
                  (     0         -1          0      )
                  (     1          0          0      )

 cart.    s( 9) = (  0.0000000  0.0000000  1.0000000 )
                  (  0.0000000 -1.0000000  0.0000000 )
                  (  1.0000000  0.0000000  0.0000000 )


      isym = 10     180 deg rotation - cart. axis [-1,0,1]       

 cryst.   s(10) = (     0          0         -1      )
                  (     0         -1          0      )
                  (    -1          0          0      )

 cart.    s(10) = (  0.0000000  0.0000000 -1.0000000 )
                  (  0.0000000 -1.0000000  0.0000000 )
                  ( -1.0000000  0.0000000  0.0000000 )


      isym = 11      90 deg rotation - cart. axis [0,1,0]        

 cryst.   s(11) = (     0          0         -1      )
                  (     0          1          0      )
                  (     1          0          0      )

 cart.    s(11) = (  0.0000000  0.0000000  1.0000000 )
                  (  0.0000000  1.0000000  0.0000000 )
                  ( -1.0000000  0.0000000  0.0000000 )


      isym = 12      90 deg rotation - cart. axis [0,-1,0]       

 cryst.   s(12) = (     0          0          1      )
                  (     0          1          0      )
                  (    -1          0          0      )

 cart.    s(12) = (  0.0000000  0.0000000 -1.0000000 )
                  (  0.0000000  1.0000000  0.0000000 )
                  (  1.0000000  0.0000000  0.0000000 )


      isym = 13     180 deg rotation - cart. axis [0,1,1]        

 cryst.   s(13) = (    -1          0          0      )
                  (     0          0          1      )
                  (     0          1          0      )

 cart.    s(13) = ( -1.0000000  0.0000000  0.0000000 )
                  (  0.0000000  0.0000000  1.0000000 )
                  (  0.0000000  1.0000000  0.0000000 )


      isym = 14     180 deg rotation - cart. axis [0,1,-1]       

 cryst.   s(14) = (    -1          0          0      )
                  (     0          0         -1      )
                  (     0         -1          0      )

 cart.    s(14) = ( -1.0000000  0.0000000  0.0000000 )
                  (  0.0000000  0.0000000 -1.0000000 )
                  (  0.0000000 -1.0000000  0.0000000 )


      isym = 15      90 deg rotation - cart. axis [-1,0,0]       

 cryst.   s(15) = (     1          0          0      )
                  (     0          0         -1      )
                  (     0          1          0      )

 cart.    s(15) = (  1.0000000  0.0000000  0.0000000 )
                  (  0.0000000  0.0000000  1.0000000 )
                  (  0.0000000 -1.0000000  0.0000000 )


      isym = 16      90 deg rotation - cart. axis [1,0,0]        

 cryst.   s(16) = (     1          0          0      )
                  (     0          0          1      )
                  (     0         -1          0      )

 cart.    s(16) = (  1.0000000  0.0000000  0.0000000 )
                  (  0.0000000  0.0000000 -1.0000000 )
                  (  0.0000000  1.0000000  0.0000000 )


      isym = 17     120 deg rotation - cart. axis [-1,-1,-1]     

 cryst.   s(17) = (     0          0          1      )
                  (     1          0          0      )
                  (     0          1          0      )

 cart.    s(17) = (  0.0000000  1.0000000  0.0000000 )
                  (  0.0000000  0.0000000  1.0000000 )
                  (  1.0000000  0.0000000  0.0000000 )


      isym = 18     120 deg rotation - cart. axis [-1,1,1]       

 cryst.   s(18) = (     0          0         -1      )
                  (    -1          0          0      )
                  (     0          1          0      )

 cart.    s(18) = (  0.0000000 -1.0000000  0.0000000 )
                  (  0.0000000  0.0000000  1.0000000 )
                  ( -1.0000000  0.0000000  0.0000000 )


      isym = 19     120 deg rotation - cart. axis [1,1,-1]       

 cryst.   s(19) = (     0          0         -1      )
                  (     1          0          0      )
                  (     0         -1          0      )

 cart.    s(19) = (  0.0000000  1.0000000  0.0000000 )
                  (  0.0000000  0.0000000 -1.0000000 )
                  ( -1.0000000  0.0000000  0.0000000 )


      isym = 20     120 deg rotation - cart. axis [1,-1,1]       

 cryst.   s(20) = (     0          0          1      )
                  (    -1          0          0      )
                  (     0         -1          0      )

 cart.    s(20) = (  0.0000000 -1.0000000  0.0000000 )
                  (  0.0000000  0.0000000 -1.0000000 )
                  (  1.0000000  0.0000000  0.0000000 )


      isym = 21     120 deg rotation - cart. axis [1,1,1]        

 cryst.   s(21) = (     0          1          0      )
                  (     0          0          1      )
                  (     1          0          0      )

 cart.    s(21) = (  0.0000000  0.0000000  1.0000000 )
                  (  1.0000000  0.0000000  0.0000000 )
                  (  0.0000000  1.0000000  0.0000000 )


      isym = 22     120 deg rotation - cart. axis [-1,1,-1]      

 cryst.   s(22) = (     0         -1          0      )
                  (     0          0         -1      )
                  (     1          0          0      )

 cart.    s(22) = (  0.0000000  0.0000000  1.0000000 )
                  ( -1.0000000  0.0000000  0.0000000 )
                  (  0.0000000 -1.0000000  0.0000000 )


      isym = 23     120 deg rotation - cart. axis [1,-1,-1]      

 cryst.   s(23) = (     0         -1          0      )
                  (     0          0          1      )
                  (    -1          0          0      )

 cart.    s(23) = (  0.0000000  0.0000000 -1.0000000 )
                  ( -1.0000000  0.0000000  0.0000000 )
                  (  0.0000000  1.0000000  0.0000000 )


      isym = 24     120 deg rotation - cart. axis [-1,-1,1]      

 cryst.   s(24) = (     0          1          0      )
                  (     0          0         -1      )
                  (    -1          0          0      )

 cart.    s(24) = (  0.0000000  0.0000000 -1.0000000 )
                  (  1.0000000  0.0000000  0.0000000 )
                  (  0.0000000 -1.0000000  0.0000000 )


      isym = 25     inversion                                    

 cryst.   s(25) = (    -1          0          0      )
                  (     0         -1          0      )
                  (     0          0         -1      )

 cart.    s(25) = ( -1.0000000  0.0000000  0.0000000 )
                  (  0.0000000 -1.0000000  0.0000000 )
                  (  0.0000000  0.0000000 -1.0000000 )


      isym = 26     inv. 180 deg rotation - cart. axis [0,0,1]   

 cryst.   s(26) = (     1          0          0      )
                  (     0          1          0      )
                  (     0          0         -1      )

 cart.    s(26) = (  1.0000000  0.0000000  0.0000000 )
                  (  0.0000000  1.0000000  0.0000000 )
                  (  0.0000000  0.0000000 -1.0000000 )


      isym = 27     inv. 180 deg rotation - cart. axis [0,1,0]   

 cryst.   s(27) = (     1          0          0      )
                  (     0         -1          0      )
                  (     0          0          1      )

 cart.    s(27) = (  1.0000000  0.0000000  0.0000000 )
                  (  0.0000000 -1.0000000  0.0000000 )
                  (  0.0000000  0.0000000  1.0000000 )


      isym = 28     inv. 180 deg rotation - cart. axis [1,0,0]   

 cryst.   s(28) = (    -1          0          0      )
                  (     0          1          0      )
                  (     0          0          1      )

 cart.    s(28) = ( -1.0000000  0.0000000  0.0000000 )
                  (  0.0000000  1.0000000  0.0000000 )
                  (  0.0000000  0.0000000  1.0000000 )


      isym = 29     inv. 180 deg rotation - cart. axis [1,1,0]   

 cryst.   s(29) = (     0         -1          0      )
                  (    -1          0          0      )
                  (     0          0          1      )

 cart.    s(29) = (  0.0000000 -1.0000000  0.0000000 )
                  ( -1.0000000  0.0000000  0.0000000 )
                  (  0.0000000  0.0000000  1.0000000 )


      isym = 30     inv. 180 deg rotation - cart. axis [1,-1,0]  

 cryst.   s(30) = (     0          1          0      )
                  (     1          0          0      )
                  (     0          0          1      )

 cart.    s(30) = (  0.0000000  1.0000000  0.0000000 )
                  (  1.0000000  0.0000000  0.0000000 )
                  (  0.0000000  0.0000000  1.0000000 )


      isym = 31     inv.  90 deg rotation - cart. axis [0,0,-1]  

 cryst.   s(31) = (     0          1          0      )
                  (    -1          0          0      )
                  (     0          0         -1      )

 cart.    s(31) = (  0.0000000 -1.0000000  0.0000000 )
                  (  1.0000000  0.0000000  0.0000000 )
                  (  0.0000000  0.0000000 -1.0000000 )


      isym = 32     inv.  90 deg rotation - cart. axis [0,0,1]   

 cryst.   s(32) = (     0         -1          0      )
                  (     1          0          0      )
                  (     0          0         -1      )

 cart.    s(32) = (  0.0000000  1.0000000  0.0000000 )
                  ( -1.0000000  0.0000000  0.0000000 )
                  (  0.0000000  0.0000000 -1.0000000 )


      isym = 33     inv. 180 deg rotation - cart. axis [1,0,1]   

 cryst.   s(33) = (     0          0         -1      )
                  (     0          1          0      )
                  (    -1          0          0      )

 cart.    s(33) = (  0.0000000  0.0000000 -1.0000000 )
                  (  0.0000000  1.0000000  0.0000000 )
                  ( -1.0000000  0.0000000  0.0000000 )


      isym = 34     inv. 180 deg rotation - cart. axis [-1,0,1]  

 cryst.   s(34) = (     0          0          1      )
                  (     0          1          0      )
                  (     1          0          0      )

 cart.    s(34) = (  0.0000000  0.0000000  1.0000000 )
                  (  0.0000000  1.0000000  0.0000000 )
                  (  1.0000000  0.0000000  0.0000000 )


      isym = 35     inv.  90 deg rotation - cart. axis [0,1,0]   

 cryst.   s(35) = (     0          0          1      )
                  (     0         -1          0      )
                  (    -1          0          0      )

 cart.    s(35) = (  0.0000000  0.0000000 -1.0000000 )
                  (  0.0000000 -1.0000000  0.0000000 )
                  (  1.0000000  0.0000000  0.0000000 )


      isym = 36     inv.  90 deg rotation - cart. axis [0,-1,0]  

 cryst.   s(36) = (     0          0         -1      )
                  (     0         -1          0      )
                  (     1          0          0      )

 cart.    s(36) = (  0.0000000  0.0000000  1.0000000 )
                  (  0.0000000 -1.0000000  0.0000000 )
                  ( -1.0000000  0.0000000  0.0000000 )


      isym = 37     inv. 180 deg rotation - cart. axis [0,1,1]   

 cryst.   s(37) = (     1          0          0      )
                  (     0          0         -1      )
                  (     0         -1          0      )

 cart.    s(37) = (  1.0000000  0.0000000  0.0000000 )
                  (  0.0000000  0.0000000 -1.0000000 )
                  (  0.0000000 -1.0000000  0.0000000 )


      isym = 38     inv. 180 deg rotation - cart. axis [0,1,-1]  

 cryst.   s(38) = (     1          0          0      )
                  (     0          0          1      )
                  (     0          1          0      )

 cart.    s(38) = (  1.0000000  0.0000000  0.0000000 )
                  (  0.0000000  0.0000000  1.0000000 )
                  (  0.0000000  1.0000000  0.0000000 )


      isym = 39     inv.  90 deg rotation - cart. axis [-1,0,0]  

 cryst.   s(39) = (    -1          0          0      )
                  (     0          0          1      )
                  (     0         -1          0      )

 cart.    s(39) = ( -1.0000000  0.0000000  0.0000000 )
                  (  0.0000000  0.0000000 -1.0000000 )
                  (  0.0000000  1.0000000  0.0000000 )


      isym = 40     inv.  90 deg rotation - cart. axis [1,0,0]   

 cryst.   s(40) = (    -1          0          0      )
                  (     0          0         -1      )
                  (     0          1          0      )

 cart.    s(40) = ( -1.0000000  0.0000000  0.0000000 )
                  (  0.0000000  0.0000000  1.0000000 )
                  (  0.0000000 -1.0000000  0.0000000 )


      isym = 41     inv. 120 deg rotation - cart. axis [-1,-1,-1]

 cryst.   s(41) = (     0          0         -1      )
                  (    -1          0          0      )
                  (     0         -1          0      )

 cart.    s(41) = (  0.0000000 -1.0000000  0.0000000 )
                  (  0.0000000  0.0000000 -1.0000000 )
                  ( -1.0000000  0.0000000  0.0000000 )


      isym = 42     inv. 120 deg rotation - cart. axis [-1,1,1]  

 cryst.   s(42) = (     0          0          1      )
                  (     1          0          0      )
                  (     0         -1          0      )

 cart.    s(42) = (  0.0000000  1.0000000  0.0000000 )
                  (  0.0000000  0.0000000 -1.0000000 )
                  (  1.0000000  0.0000000  0.0000000 )


      isym = 43     inv. 120 deg rotation - cart. axis [1,1,-1]  

 cryst.   s(43) = (     0          0          1      )
                  (    -1          0          0      )
                  (     0          1          0      )

 cart.    s(43) = (  0.0000000 -1.0000000  0.0000000 )
                  (  0.0000000  0.0000000  1.0000000 )
                  (  1.0000000  0.0000000  0.0000000 )


      isym = 44     inv. 120 deg rotation - cart. axis [1,-1,1]  

 cryst.   s(44) = (     0          0         -1      )
                  (     1          0          0      )
                  (     0          1          0      )

 cart.    s(44) = (  0.0000000  1.0000000  0.0000000 )
                  (  0.0000000  0.0000000  1.0000000 )
                  ( -1.0000000  0.0000000  0.0000000 )


      isym = 45     inv. 120 deg rotation - cart. axis [1,1,1]   

 cryst.   s(45) = (     0         -1          0      )
                  (     0          0         -1      )
                  (    -1          0          0      )

 cart.    s(45) = (  0.0000000  0.0000000 -1.0000000 )
                  ( -1.0000000  0.0000000  0.0000000 )
                  (  0.0000000 -1.0000000  0.0000000 )


      isym = 46     inv. 120 deg rotation - cart. axis [-1,1,-1] 

 cryst.   s(46) = (     0          1          0      )
                  (     0          0          1      )
                  (    -1          0          0      )

 cart.    s(46) = (  0.0000000  0.0000000 -1.0000000 )
                  (  1.0000000  0.0000000  0.0000000 )
                  (  0.0000000  1.0000000  0.0000000 )


      isym = 47     inv. 120 deg rotation - cart. axis [1,-1,-1] 

 cryst.   s(47) = (     0          1          0      )
                  (     0          0         -1      )
                  (     1          0          0      )

 cart.    s(47) = (  0.0000000  0.0000000  1.0000000 )
                  (  1.0000000  0.0000000  0.0000000 )
                  (  0.0000000 -1.0000000  0.0000000 )


      isym = 48     inv. 120 deg rotation - cart. axis [-1,-1,1] 

 cryst.   s(48) = (     0         -1          0      )
                  (     0          0          1      )
                  (     1          0          0      )

 cart.    s(48) = (  0.0000000  0.0000000  1.0000000 )
                  ( -1.0000000  0.0000000  0.0000000 )
                  (  0.0000000  1.0000000  0.0000000 )


   Cartesian axes

     site n.     atom                  positions (alat units)
         1        Zn     tau(   1) = (   0.0000000   0.0000000   0.0000000  )
         2        O      tau(   2) = (   0.5000000   0.5000000   0.5000000  )

   Crystallographic axes

     site n.     atom                  positions (cryst. coord.)
         1        Zn     tau(   1) = (  0.0000000  0.0000000  0.0000000  )
         2        O      tau(   2) = (  0.5000000  0.5000000  0.5000000  )

     number of k points=    84  Marzari-Vanderbilt smearing, width (Ry)=  0.0147
                       cart. coord. in units 2pi/alat
        k(    1) = (   0.0000000   0.0000000   0.0000000), wk =   0.0011574
        k(    2) = (   0.0000000   0.0000000   0.0833333), wk =   0.0069444
        k(    3) = (   0.0000000   0.0000000   0.1666667), wk =   0.0069444
        k(    4) = (   0.0000000   0.0000000   0.2500000), wk =   0.0069444
        k(    5) = (   0.0000000   0.0000000   0.3333333), wk =   0.0069444
        k(    6) = (   0.0000000   0.0000000   0.4166667), wk =   0.0069444
        k(    7) = (   0.0000000   0.0000000  -0.5000000), wk =   0.0034722
        k(    8) = (   0.0000000   0.0833333   0.0833333), wk =   0.0138889
        k(    9) = (   0.0000000   0.0833333   0.1666667), wk =   0.0277778
        k(   10) = (   0.0000000   0.0833333   0.2500000), wk =   0.0277778
        k(   11) = (   0.0000000   0.0833333   0.3333333), wk =   0.0277778
        k(   12) = (   0.0000000   0.0833333   0.4166667), wk =   0.0277778
        k(   13) = (   0.0000000   0.0833333  -0.5000000), wk =   0.0138889
        k(   14) = (   0.0000000   0.1666667   0.1666667), wk =   0.0138889
        k(   15) = (   0.0000000   0.1666667   0.2500000), wk =   0.0277778
        k(   16) = (   0.0000000   0.1666667   0.3333333), wk =   0.0277778
        k(   17) = (   0.0000000   0.1666667   0.4166667), wk =   0.0277778
        k(   18) = (   0.0000000   0.1666667  -0.5000000), wk =   0.0138889
        k(   19) = (   0.0000000   0.2500000   0.2500000), wk =   0.0138889
        k(   20) = (   0.0000000   0.2500000   0.3333333), wk =   0.0277778
        k(   21) = (   0.0000000   0.2500000   0.4166667), wk =   0.0277778
        k(   22) = (   0.0000000   0.2500000  -0.5000000), wk =   0.0138889
        k(   23) = (   0.0000000   0.3333333   0.3333333), wk =   0.0138889
        k(   24) = (   0.0000000   0.3333333   0.4166667), wk =   0.0277778
        k(   25) = (   0.0000000   0.3333333  -0.5000000), wk =   0.0138889
        k(   26) = (   0.0000000   0.4166667   0.4166667), wk =   0.0138889
        k(   27) = (   0.0000000   0.4166667  -0.5000000), wk =   0.0138889
        k(   28) = (   0.0000000  -0.5000000  -0.5000000), wk =   0.0034722
        k(   29) = (   0.0833333   0.0833333   0.0833333), wk =   0.0092593
        k(   30) = (   0.0833333   0.0833333   0.1666667), wk =   0.0277778
        k(   31) = (   0.0833333   0.0833333   0.2500000), wk =   0.0277778
        k(   32) = (   0.0833333   0.0833333   0.3333333), wk =   0.0277778
        k(   33) = (   0.0833333   0.0833333   0.4166667), wk =   0.0277778
        k(   34) = (   0.0833333   0.0833333  -0.5000000), wk =   0.0138889
        k(   35) = (   0.0833333   0.1666667   0.1666667), wk =   0.0277778
        k(   36) = (   0.0833333   0.1666667   0.2500000), wk =   0.0555556
        k(   37) = (   0.0833333   0.1666667   0.3333333), wk =   0.0555556
        k(   38) = (   0.0833333   0.1666667   0.4166667), wk =   0.0555556
        k(   39) = (   0.0833333   0.1666667  -0.5000000), wk =   0.0277778
        k(   40) = (   0.0833333   0.2500000   0.2500000), wk =   0.0277778
        k(   41) = (   0.0833333   0.2500000   0.3333333), wk =   0.0555556
        k(   42) = (   0.0833333   0.2500000   0.4166667), wk =   0.0555556
        k(   43) = (   0.0833333   0.2500000  -0.5000000), wk =   0.0277778
        k(   44) = (   0.0833333   0.3333333   0.3333333), wk =   0.0277778
        k(   45) = (   0.0833333   0.3333333   0.4166667), wk =   0.0555556
        k(   46) = (   0.0833333   0.3333333  -0.5000000), wk =   0.0277778
        k(   47) = (   0.0833333   0.4166667   0.4166667), wk =   0.0277778
        k(   48) = (   0.0833333   0.4166667  -0.5000000), wk =   0.0277778
        k(   49) = (   0.0833333  -0.5000000  -0.5000000), wk =   0.0069444
        k(   50) = (   0.1666667   0.1666667   0.1666667), wk =   0.0092593
        k(   51) = (   0.1666667   0.1666667   0.2500000), wk =   0.0277778
        k(   52) = (   0.1666667   0.1666667   0.3333333), wk =   0.0277778
        k(   53) = (   0.1666667   0.1666667   0.4166667), wk =   0.0277778
        k(   54) = (   0.1666667   0.1666667  -0.5000000), wk =   0.0138889
        k(   55) = (   0.1666667   0.2500000   0.2500000), wk =   0.0277778
        k(   56) = (   0.1666667   0.2500000   0.3333333), wk =   0.0555556
        k(   57) = (   0.1666667   0.2500000   0.4166667), wk =   0.0555556
        k(   58) = (   0.1666667   0.2500000  -0.5000000), wk =   0.0277778
        k(   59) = (   0.1666667   0.3333333   0.3333333), wk =   0.0277778
        k(   60) = (   0.1666667   0.3333333   0.4166667), wk =   0.0555556
        k(   61) = (   0.1666667   0.3333333  -0.5000000), wk =   0.0277778
        k(   62) = (   0.1666667   0.4166667   0.4166667), wk =   0.0277778
        k(   63) = (   0.1666667   0.4166667  -0.5000000), wk =   0.0277778
        k(   64) = (   0.1666667  -0.5000000  -0.5000000), wk =   0.0069444
        k(   65) = (   0.2500000   0.2500000   0.2500000), wk =   0.0092593
        k(   66) = (   0.2500000   0.2500000   0.3333333), wk =   0.0277778
        k(   67) = (   0.2500000   0.2500000   0.4166667), wk =   0.0277778
        k(   68) = (   0.2500000   0.2500000  -0.5000000), wk =   0.0138889
        k(   69) = (   0.2500000   0.3333333   0.3333333), wk =   0.0277778
        k(   70) = (   0.2500000   0.3333333   0.4166667), wk =   0.0555556
        k(   71) = (   0.2500000   0.3333333  -0.5000000), wk =   0.0277778
        k(   72) = (   0.2500000   0.4166667   0.4166667), wk =   0.0277778
        k(   73) = (   0.2500000   0.4166667  -0.5000000), wk =   0.0277778
        k(   74) = (   0.2500000  -0.5000000  -0.5000000), wk =   0.0069444
        k(   75) = (   0.3333333   0.3333333   0.3333333), wk =   0.0092593
        k(   76) = (   0.3333333   0.3333333   0.4166667), wk =   0.0277778
        k(   77) = (   0.3333333   0.3333333  -0.5000000), wk =   0.0138889
        k(   78) = (   0.3333333   0.4166667   0.4166667), wk =   0.0277778
        k(   79) = (   0.3333333   0.4166667  -0.5000000), wk =   0.0277778
        k(   80) = (   0.3333333  -0.5000000  -0.5000000), wk =   0.0069444
        k(   81) = (   0.4166667   0.4166667   0.4166667), wk =   0.0092593
        k(   82) = (   0.4166667   0.4166667  -0.5000000), wk =   0.0138889
        k(   83) = (   0.4166667  -0.5000000  -0.5000000), wk =   0.0069444
        k(   84) = (  -0.5000000  -0.5000000  -0.5000000), wk =   0.0011574

                       cryst. coord.
        k(    1) = (   0.0000000   0.0000000   0.0000000), wk =   0.0011574
        k(    2) = (   0.0000000   0.0000000   0.0833333), wk =   0.0069444
        k(    3) = (   0.0000000   0.0000000   0.1666667), wk =   0.0069444
        k(    4) = (   0.0000000   0.0000000   0.2500000), wk =   0.0069444
        k(    5) = (   0.0000000   0.0000000   0.3333333), wk =   0.0069444
        k(    6) = (   0.0000000   0.0000000   0.4166667), wk =   0.0069444
        k(    7) = (   0.0000000   0.0000000  -0.5000000), wk =   0.0034722
        k(    8) = (   0.0000000   0.0833333   0.0833333), wk =   0.0138889
        k(    9) = (   0.0000000   0.0833333   0.1666667), wk =   0.0277778
        k(   10) = (   0.0000000   0.0833333   0.2500000), wk =   0.0277778
        k(   11) = (   0.0000000   0.0833333   0.3333333), wk =   0.0277778
        k(   12) = (   0.0000000   0.0833333   0.4166667), wk =   0.0277778
        k(   13) = (   0.0000000   0.0833333  -0.5000000), wk =   0.0138889
        k(   14) = (   0.0000000   0.1666667   0.1666667), wk =   0.0138889
        k(   15) = (   0.0000000   0.1666667   0.2500000), wk =   0.0277778
        k(   16) = (   0.0000000   0.1666667   0.3333333), wk =   0.0277778
        k(   17) = (   0.0000000   0.1666667   0.4166667), wk =   0.0277778
        k(   18) = (   0.0000000   0.1666667  -0.5000000), wk =   0.0138889
        k(   19) = (   0.0000000   0.2500000   0.2500000), wk =   0.0138889
        k(   20) = (   0.0000000   0.2500000   0.3333333), wk =   0.0277778
        k(   21) = (   0.0000000   0.2500000   0.4166667), wk =   0.0277778
        k(   22) = (   0.0000000   0.2500000  -0.5000000), wk =   0.0138889
        k(   23) = (   0.0000000   0.3333333   0.3333333), wk =   0.0138889
        k(   24) = (   0.0000000   0.3333333   0.4166667), wk =   0.0277778
        k(   25) = (   0.0000000   0.3333333  -0.5000000), wk =   0.0138889
        k(   26) = (   0.0000000   0.4166667   0.4166667), wk =   0.0138889
        k(   27) = (   0.0000000   0.4166667  -0.5000000), wk =   0.0138889
        k(   28) = (   0.0000000  -0.5000000  -0.5000000), wk =   0.0034722
        k(   29) = (   0.0833333   0.0833333   0.0833333), wk =   0.0092593
        k(   30) = (   0.0833333   0.0833333   0.1666667), wk =   0.0277778
        k(   31) = (   0.0833333   0.0833333   0.2500000), wk =   0.0277778
        k(   32) = (   0.0833333   0.0833333   0.3333333), wk =   0.0277778
        k(   33) = (   0.0833333   0.0833333   0.4166667), wk =   0.0277778
        k(   34) = (   0.0833333   0.0833333  -0.5000000), wk =   0.0138889
        k(   35) = (   0.0833333   0.1666667   0.1666667), wk =   0.0277778
        k(   36) = (   0.0833333   0.1666667   0.2500000), wk =   0.0555556
        k(   37) = (   0.0833333   0.1666667   0.3333333), wk =   0.0555556
        k(   38) = (   0.0833333   0.1666667   0.4166667), wk =   0.0555556
        k(   39) = (   0.0833333   0.1666667  -0.5000000), wk =   0.0277778
        k(   40) = (   0.0833333   0.2500000   0.2500000), wk =   0.0277778
        k(   41) = (   0.0833333   0.2500000   0.3333333), wk =   0.0555556
        k(   42) = (   0.0833333   0.2500000   0.4166667), wk =   0.0555556
        k(   43) = (   0.0833333   0.2500000  -0.5000000), wk =   0.0277778
        k(   44) = (   0.0833333   0.3333333   0.3333333), wk =   0.0277778
        k(   45) = (   0.0833333   0.3333333   0.4166667), wk =   0.0555556
        k(   46) = (   0.0833333   0.3333333  -0.5000000), wk =   0.0277778
        k(   47) = (   0.0833333   0.4166667   0.4166667), wk =   0.0277778
        k(   48) = (   0.0833333   0.4166667  -0.5000000), wk =   0.0277778
        k(   49) = (   0.0833333  -0.5000000  -0.5000000), wk =   0.0069444
        k(   50) = (   0.1666667   0.1666667   0.1666667), wk =   0.0092593
        k(   51) = (   0.1666667   0.1666667   0.2500000), wk =   0.0277778
        k(   52) = (   0.1666667   0.1666667   0.3333333), wk =   0.0277778
        k(   53) = (   0.1666667   0.1666667   0.4166667), wk =   0.0277778
        k(   54) = (   0.1666667   0.1666667  -0.5000000), wk =   0.0138889
        k(   55) = (   0.1666667   0.2500000   0.2500000), wk =   0.0277778
        k(   56) = (   0.1666667   0.2500000   0.3333333), wk =   0.0555556
        k(   57) = (   0.1666667   0.2500000   0.4166667), wk =   0.0555556
        k(   58) = (   0.1666667   0.2500000  -0.5000000), wk =   0.0277778
        k(   59) = (   0.1666667   0.3333333   0.3333333), wk =   0.0277778
        k(   60) = (   0.1666667   0.3333333   0.4166667), wk =   0.0555556
        k(   61) = (   0.1666667   0.3333333  -0.5000000), wk =   0.0277778
        k(   62) = (   0.1666667   0.4166667   0.4166667), wk =   0.0277778
        k(   63) = (   0.1666667   0.4166667  -0.5000000), wk =   0.0277778
        k(   64) = (   0.1666667  -0.5000000  -0.5000000), wk =   0.0069444
        k(   65) = (   0.2500000   0.2500000   0.2500000), wk =   0.0092593
        k(   66) = (   0.2500000   0.2500000   0.3333333), wk =   0.0277778
        k(   67) = (   0.2500000   0.2500000   0.4166667), wk =   0.0277778
        k(   68) = (   0.2500000   0.2500000  -0.5000000), wk =   0.0138889
        k(   69) = (   0.2500000   0.3333333   0.3333333), wk =   0.0277778
        k(   70) = (   0.2500000   0.3333333   0.4166667), wk =   0.0555556
        k(   71) = (   0.2500000   0.3333333  -0.5000000), wk =   0.0277778
        k(   72) = (   0.2500000   0.4166667   0.4166667), wk =   0.0277778
        k(   73) = (   0.2500000   0.4166667  -0.5000000), wk =   0.0277778
        k(   74) = (   0.2500000  -0.5000000  -0.5000000), wk =   0.0069444
        k(   75) = (   0.3333333   0.3333333   0.3333333), wk =   0.0092593
        k(   76) = (   0.3333333   0.3333333   0.4166667), wk =   0.0277778
        k(   77) = (   0.3333333   0.3333333  -0.5000000), wk =   0.0138889
        k(   78) = (   0.3333333   0.4166667   0.4166667), wk =   0.0277778
        k(   79) = (   0.3333333   0.4166667  -0.5000000), wk =   0.0277778
        k(   80) = (   0.3333333  -0.5000000  -0.5000000), wk =   0.0069444
        k(   81) = (   0.4166667   0.4166667   0.4166667), wk =   0.0092593
        k(   82) = (   0.4166667   0.4166667  -0.5000000), wk =   0.0138889
        k(   83) = (   0.4166667  -0.5000000  -0.5000000), wk =   0.0069444
        k(   84) = (  -0.5000000  -0.5000000  -0.5000000), wk =   0.0011574

     Dense  grid:    20005 G-vectors     FFT dimensions: (  36,  36,  36)

     Smooth grid:     7075 G-vectors     FFT dimensions: (  24,  24,  24)

     Dynamical RAM for                 wfc:       0.23 MB

     Dynamical RAM for     wfc (w. buffer):      19.49 MB

     Dynamical RAM for           str. fact:       0.61 MB

     Dynamical RAM for           local pot:       0.00 MB

     Dynamical RAM for          nlocal pot:       0.35 MB

     Dynamical RAM for                qrad:       3.21 MB

     Dynamical RAM for          rho,v,vnew:       1.98 MB

     Dynamical RAM for               rhoin:       0.66 MB

     Dynamical RAM for            rho*nmix:       4.88 MB

     Dynamical RAM for           G-vectors:       1.20 MB

     Dynamical RAM for          h,s,v(r/c):       0.05 MB

     Dynamical RAM for          <psi|beta>:       0.01 MB

     Dynamical RAM for                 psi:       0.46 MB

     Dynamical RAM for                hpsi:       0.46 MB

     Dynamical RAM for                spsi:       0.46 MB

     Dynamical RAM for      wfcinit/wfcrot:       0.47 MB

     Dynamical RAM for           addusdens:      57.08 MB

     Dynamical RAM for          addusforce:      57.24 MB

     Dynamical RAM for         addusstress:      61.36 MB

     Estimated static dynamical RAM per process >      30.20 MB

     Estimated max dynamical RAM per process >      96.44 MB

     Check: negative core charge=   -0.000003

     Initial potential from superposition of free atoms

     starting charge      25.9999, renormalised to      26.0000
     Starting wfcs are   17 randomized atomic wfcs
     Checking if some PAW data can be deallocated... 

     total cpu time spent up to now is        3.6 secs

     Self-consistent Calculation

     iteration #  1     ecut=    50.00 Ry     beta= 0.40
     Davidson diagonalization with overlap

---- Real-time Memory Report at c_bands before calling an iterative solver
            99 MiB given to the printing process from OS
             0 MiB allocation reported by mallinfo(arena+hblkhd)
          4500 MiB available memory on the node where the printing process lives
------------------
     ethr =  1.00E-02,  avg # of iterations =  2.7

     total cpu time spent up to now is       26.0 secs

     WARNING: integrated charge=    26.00013846, expected=    26.00000000

     total energy              =    -503.01056589 Ry
     estimated scf accuracy    <       0.51288038 Ry

     iteration #  2     ecut=    50.00 Ry     beta= 0.40
     Davidson diagonalization with overlap

---- Real-time Memory Report at c_bands before calling an iterative solver
           134 MiB given to the printing process from OS
             0 MiB allocation reported by mallinfo(arena+hblkhd)
          4478 MiB available memory on the node where the printing process lives
------------------
     ethr =  1.97E-03,  avg # of iterations =  2.1

     total cpu time spent up to now is       52.1 secs

     WARNING: integrated charge=    26.00010018, expected=    26.00000000

     total energy              =    -503.15183225 Ry
     estimated scf accuracy    <       0.11827608 Ry

     iteration #  3     ecut=    50.00 Ry     beta= 0.40
     Davidson diagonalization with overlap

---- Real-time Memory Report at c_bands before calling an iterative solver
           135 MiB given to the printing process from OS
             0 MiB allocation reported by mallinfo(arena+hblkhd)
          4283 MiB available memory on the node where the printing process lives
------------------
     ethr =  4.55E-04,  avg # of iterations =  2.2
     Minimization algorithm failed to find Fermi energy: reverting to bisection
     Possible cause: smearing is larger than the electronic band-gap.

     total cpu time spent up to now is       65.4 secs

     WARNING: integrated charge=    26.00003817, expected=    26.00000000

     total energy              =    -503.16949568 Ry
     estimated scf accuracy    <       0.00592334 Ry

     iteration #  4     ecut=    50.00 Ry     beta= 0.40
     Davidson diagonalization with overlap

---- Real-time Memory Report at c_bands before calling an iterative solver
           135 MiB given to the printing process from OS
             0 MiB allocation reported by mallinfo(arena+hblkhd)
          4381 MiB available memory on the node where the printing process lives
------------------
     ethr =  2.28E-05,  avg # of iterations =  2.4
     Minimization algorithm failed to find Fermi energy: reverting to bisection
     Possible cause: smearing is larger than the electronic band-gap.

     total cpu time spent up to now is       90.7 secs

     WARNING: integrated charge=    26.00000780, expected=    26.00000000

     total energy              =    -503.16972941 Ry
     estimated scf accuracy    <       0.00053932 Ry

     iteration #  5     ecut=    50.00 Ry     beta= 0.40
     Davidson diagonalization with overlap

---- Real-time Memory Report at c_bands before calling an iterative solver
           135 MiB given to the printing process from OS
             0 MiB allocation reported by mallinfo(arena+hblkhd)
          4290 MiB available memory on the node where the printing process lives
------------------
     ethr =  2.07E-06,  avg # of iterations =  2.2
     Minimization algorithm failed to find Fermi energy: reverting to bisection
     Possible cause: smearing is larger than the electronic band-gap.

     total cpu time spent up to now is      110.8 secs

     WARNING: integrated charge=    26.00000385, expected=    26.00000000

     total energy              =    -503.16978372 Ry
     estimated scf accuracy    <       0.00001086 Ry

     iteration #  6     ecut=    50.00 Ry     beta= 0.40
     Davidson diagonalization with overlap

---- Real-time Memory Report at c_bands before calling an iterative solver
           135 MiB given to the printing process from OS
             0 MiB allocation reported by mallinfo(arena+hblkhd)
          4290 MiB available memory on the node where the printing process lives
------------------
     ethr =  4.18E-08,  avg # of iterations =  2.0
     Minimization algorithm failed to find Fermi energy: reverting to bisection
     Possible cause: smearing is larger than the electronic band-gap.

     total cpu time spent up to now is      134.7 secs

     total energy              =    -503.16978585 Ry
     estimated scf accuracy    <       0.00000835 Ry

     iteration #  7     ecut=    50.00 Ry     beta= 0.40
     Davidson diagonalization with overlap

---- Real-time Memory Report at c_bands before calling an iterative solver
           135 MiB given to the printing process from OS
             0 MiB allocation reported by mallinfo(arena+hblkhd)
          4294 MiB available memory on the node where the printing process lives
------------------
     ethr =  3.21E-08,  avg # of iterations =  2.0
     Minimization algorithm failed to find Fermi energy: reverting to bisection
     Possible cause: smearing is larger than the electronic band-gap.

     total cpu time spent up to now is      148.1 secs

     total energy              =    -503.16978653 Ry
     estimated scf accuracy    <       0.00000007 Ry

     iteration #  8     ecut=    50.00 Ry     beta= 0.40
     Davidson diagonalization with overlap

---- Real-time Memory Report at c_bands before calling an iterative solver
           136 MiB given to the printing process from OS
             0 MiB allocation reported by mallinfo(arena+hblkhd)
          4293 MiB available memory on the node where the printing process lives
------------------
     ethr =  2.50E-10,  avg # of iterations =  2.0
     Minimization algorithm failed to find Fermi energy: reverting to bisection
     Possible cause: smearing is larger than the electronic band-gap.

     total cpu time spent up to now is      172.0 secs

     total energy              =    -503.16978655 Ry
     estimated scf accuracy    <       0.00000013 Ry

     iteration #  9     ecut=    50.00 Ry     beta= 0.40
     Davidson diagonalization with overlap

---- Real-time Memory Report at c_bands before calling an iterative solver
           136 MiB given to the printing process from OS
             0 MiB allocation reported by mallinfo(arena+hblkhd)
          4470 MiB available memory on the node where the printing process lives
------------------
     ethr =  2.50E-10,  avg # of iterations =  2.0
     Minimization algorithm failed to find Fermi energy: reverting to bisection
     Possible cause: smearing is larger than the electronic band-gap.

     total cpu time spent up to now is      179.9 secs

     End of self-consistent calculation

          k = 0.0000 0.0000 0.0000 (   895 PWs)   bands (ev):

  -114.3954 -68.5766 -68.5766 -68.5766  -7.2336   4.0902   4.0902   4.9246
     4.9246   4.9246   8.9501   9.4000   9.4000   9.4000  23.8582  23.8582
    26.1448

     occupation numbers 
     1.0000   1.0000   1.0000   1.0000   1.0000   1.0000   1.0000   1.0000
     1.0000   1.0000   1.0000   1.0000   1.0000   1.0000   0.0000   0.0000
     0.0000

          k = 0.0000 0.0000 0.0833 (   888 PWs)   bands (ev):

  -114.3953 -68.5772 -68.5765 -68.5765  -7.1789   4.0967   4.1063   4.8929
     4.8929   4.9263   8.0723   9.4633   9.4633  10.2373  22.9979  23.9586
    26.0812

     occupation numbers 
     1.0000   1.0000   1.0000   1.0000   1.0000   1.0000   1.0000   1.0000
     1.0000   1.0000   1.0000   1.0000   1.0000   0.9422   0.0000   0.0000
     0.0000

          k = 0.0000 0.0000 0.1667 (   892 PWs)   bands (ev):

  -114.3952 -68.5791 -68.5764 -68.5764  -7.0243   4.1144   4.1175   4.8093
     4.8093   4.9310   7.0664   9.6350   9.6350  11.1952  21.4928  24.2609
    25.8900

     occupation numbers 
     1.0000   1.0000   1.0000   1.0000   1.0000   1.0000   1.0000   1.0000
     1.0000   1.0000   1.0000   1.0000   1.0000   0.0000   0.0000   0.0000
     0.0000

          k = 0.0000 0.0000 0.2500 (   868 PWs)   bands (ev):

  -114.3951 -68.5815 -68.5760 -68.5760  -6.7994   4.0073   4.1386   4.7020
     4.7020   4.9375   6.2986   9.8682   9.8682  12.1196  19.8761  24.7688
    25.5900

     occupation numbers 
     1.0000   1.0000   1.0000   1.0000   1.0000   1.0000   1.0000   1.0000
     1.0000   1.0000   1.0000   1.0065   1.0065   0.0000   0.0000   0.0000
     0.0000

          k = 0.0000 0.0000 0.3333 (   868 PWs)   bands (ev):

  -114.3949 -68.5841 -68.5759 -68.5759  -6.5555   3.6821   4.1629   4.6011
     4.6011   4.9439   5.9307  10.1015  10.1015  13.0627  18.2850  25.2503
    25.2504

     occupation numbers 
     1.0000   1.0000   1.0000   1.0000   1.0000   1.0000   1.0000   1.0000
     1.0000   1.0000   1.0000   1.0827   1.0827   0.0000   0.0000   0.0000
     0.0000

          k = 0.0000 0.0000 0.4167 (   868 PWs)   bands (ev):

  -114.3948 -68.5860 -68.5757 -68.5757  -6.3623   3.3166   4.1807   4.5309
     4.5309   4.9486   5.8469  10.2734  10.2734  14.0691  16.8225  24.9800
    24.9800

     occupation numbers 
     1.0000   1.0000   1.0000   1.0000   1.0000   1.0000   1.0000   1.0000
     1.0000   1.0000   1.0000   0.8393   0.8393   0.0000   0.0000   0.0000
     0.0000

          k = 0.0000 0.0000-0.5000 (   884 PWs)   bands (ev):

  -114.3948 -68.5868 -68.5758 -68.5758  -6.2880   3.1640   4.1872   4.5058
     4.5058   4.9503   5.8428  10.3367  10.3367  14.8570  15.8706  24.8770
    24.8770

     occupation numbers 
     1.0000   1.0000   1.0000   1.0000   1.0000   1.0000   1.0000   1.0000
     1.0000   1.0000   1.0000   0.6140   0.6140   0.0000   0.0000   0.0000
     0.0000

          k = 0.0000 0.0833 0.0833 (   887 PWs)   bands (ev):

  -114.3953 -68.5772 -68.5772 -68.5765  -7.1252   4.1067   4.1222   4.8591
     4.8807   4.9108   7.7780   9.2032   9.5220  10.8118  22.8557  23.3592
    26.0350

     occupation numbers 
     1.0000   1.0000   1.0000   1.0000   1.0000   1.0000   1.0000   1.0000
     1.0000   1.0000   1.0000   1.0000   1.0000   0.0002   0.0000   0.0000
     0.0000

          k = 0.0000 0.0833 0.1667 (   881 PWs)   bands (ev):

  -114.3952 -68.5790 -68.5770 -68.5763  -6.9735   4.1187   4.1494   4.7734
     4.8084   4.9102   7.0395   9.2007   9.6814  11.6642  21.5386  23.3312
    25.8908

     occupation numbers 
     1.0000   1.0000   1.0000   1.0000   1.0000   1.0000   1.0000   1.0000
     1.0000   1.0000   1.0000   1.0000   1.0001   0.0000   0.0000   0.0000
     0.0000

          k = 0.0000 0.0833 0.2500 (   880 PWs)   bands (ev):

  -114.3950 -68.5816 -68.5768 -68.5761  -6.7532   4.0384   4.1608   4.6760
     4.7071   4.9177   6.3363   9.4062   9.8981  12.5159  19.9094  23.5328
    25.6518

     occupation numbers 
     1.0000   1.0000   1.0000   1.0000   1.0000   1.0000   1.0000   1.0000
     1.0000   1.0000   1.0000   1.0000   1.0110   0.0000   0.0000   0.0000
     0.0000

          k = 0.0000 0.0833 0.3333 (   875 PWs)   bands (ev):

  -114.3949 -68.5841 -68.5766 -68.5758  -6.5147   3.7426   4.1847   4.5931
     4.6109   4.9259   5.9608   9.6582  10.1149  13.3886  18.3021  23.7214
    25.3677

     occupation numbers 
     1.0000   1.0000   1.0000   1.0000   1.0000   1.0000   1.0000   1.0000
     1.0000   1.0000   1.0000   1.0000   1.0833   0.0000   0.0000   0.0000
     0.0000

          k = 0.0000 0.0833 0.4167 (   874 PWs)   bands (ev):

  -114.3948 -68.5859 -68.5765 -68.5757  -6.3262   3.4029   4.2044   4.5292
     4.5436   4.9320   5.8618   9.8584  10.2746  14.3447  16.8245  23.8221
    25.1343

     occupation numbers 
     1.0000   1.0000   1.0000   1.0000   1.0000   1.0000   1.0000   1.0000
     1.0000   1.0000   1.0000   1.0054   0.8357   0.0000   0.0000   0.0000
     0.0000

          k = 0.0000 0.0833-0.5000 (   878 PWs)   bands (ev):

  -114.3947 -68.5867 -68.5764 -68.5757  -6.2538   3.2594   4.2121   4.5046
     4.5195   4.9342   5.8529   9.9347  10.3333  15.2554  15.7249  23.8461
    25.0440

     occupation numbers 
     1.0000   1.0000   1.0000   1.0000   1.0000   1.0000   1.0000   1.0000
     1.0000   1.0000   1.0000   1.0193   0.6269   0.0000   0.0000   0.0000
     0.0000

          k = 0.0000 0.1667 0.1667 (   881 PWs)   bands (ev):

  -114.3951 -68.5789 -68.5789 -68.5761  -6.8304   4.1198   4.2209   4.6874
     4.7880   4.8729   6.8459   8.6746   9.8077  12.4454  21.6295  21.7304
    25.8770

     occupation numbers 
     1.0000   1.0000   1.0000   1.0000   1.0000   1.0000   1.0000   1.0000
     1.0000   1.0000   1.0000   1.0000   1.0020   0.0000   0.0000   0.0000
     0.0000

          k = 0.0000 0.1667 0.2500 (   883 PWs)   bands (ev):

  -114.3949 -68.5815 -68.5787 -68.5759  -6.6233   4.0730   4.2590   4.6147
     4.7181   4.8678   6.4120   8.5765   9.9795  13.2080  19.9706  21.8462
    25.8166

     occupation numbers 
     1.0000   1.0000   1.0000   1.0000   1.0000   1.0000   1.0000   1.0000
     1.0000   1.0000   1.0000   1.0000   1.0347   0.0000   0.0000   0.0000
     0.0000

          k = 0.0000 0.1667 0.3333 (   872 PWs)   bands (ev):

  -114.3948 -68.5839 -68.5785 -68.5757  -6.4004   3.8852   4.2664   4.5759
     4.6374   4.8777   6.0477   8.7476  10.1513  13.9389  18.3595  22.0336
    25.7038

     occupation numbers 
     1.0000   1.0000   1.0000   1.0000   1.0000   1.0000   1.0000   1.0000
     1.0000   1.0000   1.0000   1.0000   1.0724   0.0000   0.0000   0.0000
     0.0000

          k = 0.0000 0.1667 0.4167 (   879 PWs)   bands (ev):

  -114.3947 -68.5858 -68.5784 -68.5756  -6.2254   3.6372   4.2805   4.5296
     4.5785   4.8869   5.9082   8.9505  10.2774  14.6883  16.9801  22.1811
    25.5872

     occupation numbers 
     1.0000   1.0000   1.0000   1.0000   1.0000   1.0000   1.0000   1.0000
     1.0000   1.0000   1.0000   1.0000   0.8265   0.0000   0.0000   0.0000
     0.0000

          k = 0.0000 0.1667-0.5000 (   876 PWs)   bands (ev):

  -114.3946 -68.5865 -68.5783 -68.5755  -6.1584   3.5258   4.2881   4.5062
     4.5572   4.8905   5.8847   9.0374  10.3237  15.2762  16.1612  22.2381
    25.5374

     occupation numbers 
     1.0000   1.0000   1.0000   1.0000   1.0000   1.0000   1.0000   1.0000
     1.0000   1.0000   1.0000   1.0000   0.6627   0.0000   0.0000   0.0000
     0.0000

          k = 0.0000 0.2500 0.2500 (   876 PWs)   bands (ev):

  -114.3948 -68.5812 -68.5812 -68.5757  -6.4365   4.0632   4.3934   4.5621
     4.7143   4.8209   6.3909   7.9590  10.0901  13.8164  19.6236  20.6961
    26.0261

     occupation numbers 
     1.0000   1.0000   1.0000   1.0000   1.0000   1.0000   1.0000   1.0000
     1.0000   1.0000   1.0000   1.0000   1.0807   0.0000   0.0000   0.0000
     0.0000

          k = 0.0000 0.2500 0.3333 (   876 PWs)   bands (ev):

  -114.3946 -68.5837 -68.5810 -68.5755  -6.2371   4.0083   4.4398   4.5649
     4.6713   4.8156   6.1739   7.8303  10.2002  14.2440  18.4500  20.6909
    26.2049

     occupation numbers 
     1.0000   1.0000   1.0000   1.0000   1.0000   1.0000   1.0000   1.0000
     1.0000   1.0000   1.0000   1.0000   1.0186   0.0000   0.0000   0.0000
     0.0000

          k = 0.0000 0.2500 0.4167 (   882 PWs)   bands (ev):

  -114.3945 -68.5857 -68.5810 -68.5754  -6.0820   3.9262   4.4367   4.5471
     4.6267   4.8263   5.9933   7.9597  10.2807  14.4713  17.5463  20.8592
    26.3057

     occupation numbers 
     1.0000   1.0000   1.0000   1.0000   1.0000   1.0000   1.0000   1.0000
     1.0000   1.0000   1.0000   1.0000   0.8156   0.0000   0.0000   0.0000
     0.0000

          k = 0.0000 0.2500-0.5000 (   884 PWs)   bands (ev):

  -114.3945 -68.5864 -68.5809 -68.5753  -6.0230   3.8831   4.4352   4.5252
     4.6094   4.8315   5.9445   8.0397  10.3102  14.5333  17.2256  20.9372
    26.3344

     occupation numbers 
     1.0000   1.0000   1.0000   1.0000   1.0000   1.0000   1.0000   1.0000
     1.0000   1.0000   1.0000   1.0000   0.7126   0.0000   0.0000   0.0000
     0.0000

          k = 0.0000 0.3333 0.3333 (   884 PWs)   bands (ev):

  -114.3945 -68.5836 -68.5836 -68.5754  -6.0645   4.0789   4.5557   4.6423
     4.6918   4.7686   6.2475   7.2115  10.2485  14.1391  18.4606  20.0326
    26.7650

     occupation numbers 
     1.0000   1.0000   1.0000   1.0000   1.0000   1.0000   1.0000   1.0000
     1.0000   1.0000   1.0000   1.0000   0.9131   0.0000   0.0000   0.0000
     0.0000

          k = 0.0000 0.3333 0.4167 (   881 PWs)   bands (ev):

  -114.3944 -68.5854 -68.5835 -68.5752  -5.9313   4.1307   4.5687   4.6749
     4.7188   4.7673   6.1268   7.1047  10.2834  13.8050  18.3371  20.0092
    26.4366

     occupation numbers 
     1.0000   1.0000   1.0000   1.0000   1.0000   1.0000   1.0000   1.0000
     1.0000   1.0000   1.0000   1.0000   0.8065   0.0000   0.0000   0.0000
     0.0000

          k = 0.0000 0.3333-0.5000 (   890 PWs)   bands (ev):

  -114.3944 -68.5862 -68.5835 -68.5752  -5.8810   4.1567   4.5780   4.6624
     4.7111   4.7734   6.0458   7.1534  10.2962  13.6282  18.2728  20.0865
    26.1657

     occupation numbers 
     1.0000   1.0000   1.0000   1.0000   1.0000   1.0000   1.0000   1.0000
     1.0000   1.0000   1.0000   1.0000   0.7629   0.0000   0.0000   0.0000
     0.0000

          k = 0.0000 0.4167 0.4167 (   882 PWs)   bands (ev):

  -114.3943 -68.5854 -68.5853 -68.5750  -5.8159   4.2401   4.6263   4.7051
     4.7303   4.9412   6.2473   6.5724  10.2850  13.1312  18.9742  19.6258
    25.6739

     occupation numbers 
     1.0000   1.0000   1.0000   1.0000   1.0000   1.0000   1.0000   1.0000
     1.0000   1.0000   1.0000   1.0000   0.8012   0.0000   0.0000   0.0000
     0.0000

          k = 0.0000 0.4167-0.5000 (   880 PWs)   bands (ev):

  -114.3942 -68.5859 -68.5852 -68.5750  -5.7724   4.2783   4.6617   4.7017
     4.7314   5.0079   6.1883   6.5158  10.2856  12.8472  19.1283  19.6297
    25.3388

     occupation numbers 
     1.0000   1.0000   1.0000   1.0000   1.0000   1.0000   1.0000   1.0000
     1.0000   1.0000   1.0000   1.0000   0.7995   0.0000   0.0000   0.0000
     0.0000

          k = 0.0000-0.5000-0.5000 (   872 PWs)   bands (ev):

  -114.3942 -68.5858 -68.5858 -68.5749  -5.7316   4.3125   4.7123   4.7162
     4.7162   5.1227   6.2712   6.2712  10.2816  12.5301  19.4875  19.4875
    24.9666

     occupation numbers 
     1.0000   1.0000   1.0000   1.0000   1.0000   1.0000   1.0000   1.0000
     1.0000   1.0000   1.0000   1.0000   0.8128   0.0000   0.0000   0.0000
     0.0000

          k = 0.0833 0.0833 0.0833 (   883 PWs)   bands (ev):

  -114.3953 -68.5771 -68.5771 -68.5771  -7.0724   4.1290   4.1290   4.8360
     4.8772   4.8772   7.5809   9.2707   9.2707  11.2630  22.8959  22.8959
    25.1090

     occupation numbers 
     1.0000   1.0000   1.0000   1.0000   1.0000   1.0000   1.0000   1.0000
     1.0000   1.0000   1.0000   1.0000   1.0000   0.0000   0.0000   0.0000
     0.0000

          k = 0.0833 0.0833 0.1667 (   887 PWs)   bands (ev):

  -114.3952 -68.5790 -68.5771 -68.5770  -6.9236   4.1478   4.1589   4.7644
     4.7888   4.8832   7.0028   9.1384   9.4541  12.0341  21.5764  23.0017
    24.8576

     occupation numbers 
     1.0000   1.0000   1.0000   1.0000   1.0000   1.0000   1.0000   1.0000
     1.0000   1.0000   1.0000   1.0000   1.0000   0.0000   0.0000   0.0000
     0.0000

          k = 0.0833 0.0833 0.2500 (   881 PWs)   bands (ev):

  -114.3950 -68.5815 -68.5768 -68.5768  -6.7075   4.0793   4.1744   4.6748
     4.6914   4.8939   6.3644   9.2576   9.7035  12.8236  19.9539  23.1273
    24.8962

     occupation numbers 
     1.0000   1.0000   1.0000   1.0000   1.0000   1.0000   1.0000   1.0000
     1.0000   1.0000   1.0000   1.0000   1.0002   0.0000   0.0000   0.0000
     0.0000

          k = 0.0833 0.0833 0.3333 (   871 PWs)   bands (ev):

  -114.3948 -68.5840 -68.5765 -68.5765  -6.4741   3.8047   4.2030   4.5661
     4.6384   4.9050   5.9910   9.4634   9.9541  13.6336  18.3439  23.2094
    24.9568

     occupation numbers 
     1.0000   1.0000   1.0000   1.0000   1.0000   1.0000   1.0000   1.0000
     1.0000   1.0000   1.0000   1.0000   1.0253   0.0000   0.0000   0.0000
     0.0000

          k = 0.0833 0.0833 0.4167 (   873 PWs)   bands (ev):

  -114.3947 -68.5859 -68.5764 -68.5764  -6.2901   3.4866   4.2267   4.4878
     4.5926   4.9133   5.8819   9.6414  10.1396  14.5337  16.8723  23.2223
    24.9828

     occupation numbers 
     1.0000   1.0000   1.0000   1.0000   1.0000   1.0000   1.0000   1.0000
     1.0000   1.0000   1.0000   1.0000   1.0782   0.0000   0.0000   0.0000
     0.0000

          k = 0.0833 0.0833-0.5000 (   874 PWs)   bands (ev):

  -114.3947 -68.5866 -68.5763 -68.5763  -6.2195   3.3510   4.2366   4.4586
     4.5735   4.9164   5.8695   9.7113  10.2081  15.5931  15.6052  23.2136
    24.9870

     occupation numbers 
     1.0000   1.0000   1.0000   1.0000   1.0000   1.0000   1.0000   1.0000
     1.0000   1.0000   1.0000   1.0002   1.0049   0.0000   0.0000   0.0000
     0.0000

          k = 0.0833 0.1667 0.1667 (   881 PWs)   bands (ev):

  -114.3950 -68.5788 -68.5788 -68.5768  -6.7828   4.1594   4.2269   4.6959
     4.7683   4.8349   6.8088   8.7552   9.5082  12.7151  21.6045  21.7869
    24.5553

     occupation numbers 
     1.0000   1.0000   1.0000   1.0000   1.0000   1.0000   1.0000   1.0000
     1.0000   1.0000   1.0000   1.0000   1.0000   0.0000   0.0000   0.0000
     0.0000

          k = 0.0833 0.1667 0.2500 (   885 PWs)   bands (ev):

  -114.3949 -68.5814 -68.5787 -68.5766  -6.5793   4.1266   4.2612   4.6202
     4.7061   4.8351   6.4126   8.6192   9.7126  13.3997  20.0471  21.7842
    24.7334

     occupation numbers 
     1.0000   1.0000   1.0000   1.0000   1.0000   1.0000   1.0000   1.0000
     1.0000   1.0000   1.0000   1.0000   1.0002   0.0000   0.0000   0.0000
     0.0000

          k = 0.0833 0.1667 0.3333 (   876 PWs)   bands (ev):

  -114.3947 -68.5839 -68.5785 -68.5764  -6.3606   3.9499   4.2733   4.5355
     4.6760   4.8511   6.0748   8.7302   9.9295  14.0605  18.4575  21.8418
    24.9921

     occupation numbers 
     1.0000   1.0000   1.0000   1.0000   1.0000   1.0000   1.0000   1.0000
     1.0000   1.0000   1.0000   1.0000   1.0179   0.0000   0.0000   0.0000
     0.0000

          k = 0.0833 0.1667 0.4167 (   880 PWs)   bands (ev):

  -114.3946 -68.5858 -68.5783 -68.5763  -6.1891   3.7115   4.2962   4.4554
     4.6508   4.8647   5.9431   8.8895  10.0930  14.7373  17.1143  21.8500
    25.1994

     occupation numbers 
     1.0000   1.0000   1.0000   1.0000   1.0000   1.0000   1.0000   1.0000
     1.0000   1.0000   1.0000   1.0000   1.0813   0.0000   0.0000   0.0000
     0.0000

          k = 0.0833 0.1667-0.5000 (   876 PWs)   bands (ev):

  -114.3946 -68.5865 -68.5782 -68.5762  -6.1236   3.6043   4.3108   4.4203
     4.6370   4.8698   5.9212   8.9602  10.1540  15.2230  16.3848  21.8440
    25.2806

     occupation numbers 
     1.0000   1.0000   1.0000   1.0000   1.0000   1.0000   1.0000   1.0000
     1.0000   1.0000   1.0000   1.0000   1.0707   0.0000   0.0000   0.0000
     0.0000

          k = 0.0833 0.2500 0.2500 (   882 PWs)   bands (ev):

  -114.3948 -68.5812 -68.5812 -68.5765  -6.3949   4.1176   4.3882   4.5638
     4.7198   4.7831   6.3709   8.0621   9.8465  13.9185  19.7782  20.5973
    24.9923

     occupation numbers 
     1.0000   1.0000   1.0000   1.0000   1.0000   1.0000   1.0000   1.0000
     1.0000   1.0000   1.0000   1.0000   1.0043   0.0000   0.0000   0.0000
     0.0000

          k = 0.0833 0.2500 0.3333 (   881 PWs)   bands (ev):

  -114.3946 -68.5837 -68.5810 -68.5762  -6.1984   4.0635   4.4303   4.5178
     4.7151   4.7897   6.1895   7.9068   9.9950  14.2880  18.5785  20.5408
    25.3657

     occupation numbers 
     1.0000   1.0000   1.0000   1.0000   1.0000   1.0000   1.0000   1.0000
     1.0000   1.0000   1.0000   1.0000   1.0412   0.0000   0.0000   0.0000
     0.0000

          k = 0.0833 0.2500 0.4167 (   888 PWs)   bands (ev):

  -114.3945 -68.5856 -68.5809 -68.5761  -6.0456   3.9810   4.4247   4.4577
     4.7045   4.8097   6.0513   7.9894  10.1087  14.4937  17.6565  20.5999
    25.7189

     occupation numbers 
     1.0000   1.0000   1.0000   1.0000   1.0000   1.0000   1.0000   1.0000
     1.0000   1.0000   1.0000   1.0000   1.0832   0.0000   0.0000   0.0000
     0.0000

          k = 0.0833 0.2500-0.5000 (   884 PWs)   bands (ev):

  -114.3945 -68.5863 -68.5809 -68.5760  -5.9875   3.9373   4.4072   4.4435
     4.6935   4.8179   6.0165   8.0504  10.1515  14.5548  17.3262  20.6205
    25.8854

     occupation numbers 
     1.0000   1.0000   1.0000   1.0000   1.0000   1.0000   1.0000   1.0000
     1.0000   1.0000   1.0000   1.0000   1.0723   0.0000   0.0000   0.0000
     0.0000

          k = 0.0833 0.3333 0.3333 (   879 PWs)   bands (ev):

  -114.3944 -68.5835 -68.5835 -68.5760  -6.0269   4.1175   4.5100   4.5609
     4.7394   4.7872   6.2649   7.3463  10.0731  14.1752  18.5281  19.8647
    25.8583

     occupation numbers 
     1.0000   1.0000   1.0000   1.0000   1.0000   1.0000   1.0000   1.0000
     1.0000   1.0000   1.0000   1.0000   1.0758   0.0000   0.0000   0.0000
     0.0000

          k = 0.0833 0.3333 0.4167 (   881 PWs)   bands (ev):

  -114.3943 -68.5854 -68.5834 -68.5759  -5.8946   4.1634   4.4733   4.5846
     4.7382   4.8361   6.2158   7.2150  10.1342  13.8647  18.3256  19.7822
    26.2752

     occupation numbers 
     1.0000   1.0000   1.0000   1.0000   1.0000   1.0000   1.0000   1.0000
     1.0000   1.0000   1.0000   1.0000   1.0801   0.0000   0.0000   0.0000
     0.0000

          k = 0.0833 0.3333-0.5000 (   886 PWs)   bands (ev):

  -114.3943 -68.5861 -68.5834 -68.5758  -5.8447   4.1950   4.4340   4.5950
     4.7250   4.8506   6.1731   7.2423  10.1576  13.6995  18.2403  19.8117
    26.7042

     occupation numbers 
     1.0000   1.0000   1.0000   1.0000   1.0000   1.0000   1.0000   1.0000
     1.0000   1.0000   1.0000   1.0000   1.0682   0.0000   0.0000   0.0000
     0.0000

          k = 0.0833 0.4167 0.4167 (   885 PWs)   bands (ev):

  -114.3942 -68.5853 -68.5852 -68.5758  -5.7790   4.2724   4.5087   4.5920
     4.7308   4.9816   6.3774   6.7508  10.1551  13.2158  18.8379  19.4099
    25.8567

     occupation numbers 
     1.0000   1.0000   1.0000   1.0000   1.0000   1.0000   1.0000   1.0000
     1.0000   1.0000   1.0000   1.0000   1.0700   0.0000   0.0000   0.0000
     0.0000

          k = 0.0833 0.4167-0.5000 (   882 PWs)   bands (ev):

  -114.3942 -68.5859 -68.5852 -68.5757  -5.7354   4.3243   4.5077   4.6005
     4.7079   5.0380   6.3770   6.6859  10.1632  12.9385  18.9626  19.3852
    25.5836

     occupation numbers 
     1.0000   1.0000   1.0000   1.0000   1.0000   1.0000   1.0000   1.0000
     1.0000   1.0000   1.0000   1.0000   1.0639   0.0000   0.0000   0.0000
     0.0000

          k = 0.0833-0.5000-0.5000 (   880 PWs)   bands (ev):

  -114.3942 -68.5858 -68.5858 -68.5756  -5.6944   4.3665   4.5839   4.5839
     4.6561   5.1236   6.4863   6.4863  10.1653  12.6251  19.2546  19.2546
    25.2521

     occupation numbers 
     1.0000   1.0000   1.0000   1.0000   1.0000   1.0000   1.0000   1.0000
     1.0000   1.0000   1.0000   1.0000   1.0621   0.0000   0.0000   0.0000
     0.0000

          k = 0.1667 0.1667 0.1667 (   898 PWs)   bands (ev):

  -114.3950 -68.5788 -68.5788 -68.5787  -6.6489   4.2431   4.2431   4.7067
     4.7363   4.7363   6.6644   8.9744   8.9744  13.2453  21.5192  21.5192
    23.3814

     occupation numbers 
     1.0000   1.0000   1.0000   1.0000   1.0000   1.0000   1.0000   1.0000
     1.0000   1.0000   1.0000   1.0000   1.0000   0.0000   0.0000   0.0000
     0.0000

          k = 0.1667 0.1667 0.2500 (   882 PWs)   bands (ev):

  -114.3948 -68.5812 -68.5785 -68.5785  -6.4558   4.2534   4.2660   4.6122
     4.7003   4.7606   6.3925   8.6346   9.2738  13.7771  20.1881  21.3567
    23.5438

     occupation numbers 
     1.0000   1.0000   1.0000   1.0000   1.0000   1.0000   1.0000   1.0000
     1.0000   1.0000   1.0000   1.0000   1.0000   0.0000   0.0000   0.0000
     0.0000

          k = 0.1667 0.1667 0.3333 (   883 PWs)   bands (ev):

  -114.3946 -68.5838 -68.5783 -68.5783  -6.2492   4.1045   4.2901   4.4967
     4.7255   4.7902   6.1427   8.5567   9.5778  14.2728  18.6827  21.1325
    24.1794

     occupation numbers 
     1.0000   1.0000   1.0000   1.0000   1.0000   1.0000   1.0000   1.0000
     1.0000   1.0000   1.0000   1.0000   1.0000   0.0000   0.0000   0.0000
     0.0000

          k = 0.1667 0.1667 0.4167 (   883 PWs)   bands (ev):

  -114.3945 -68.5856 -68.5782 -68.5782  -6.0879   3.9032   4.3116   4.4135
     4.7220   4.8133   6.0447   8.6008   9.8059  14.7487  17.4656  20.9251
    24.7890

     occupation numbers 
     1.0000   1.0000   1.0000   1.0000   1.0000   1.0000   1.0000   1.0000
     1.0000   1.0000   1.0000   1.0000   1.0019   0.0000   0.0000   0.0000
     0.0000

          k = 0.1667 0.1667-0.5000 (   882 PWs)   bands (ev):

  -114.3945 -68.5863 -68.5781 -68.5781  -6.0264   3.8116   4.3240   4.3796
     4.7127   4.8224   6.0314   8.6331   9.8911  15.0236  16.9193  20.8397
    25.0515

     occupation numbers 
     1.0000   1.0000   1.0000   1.0000   1.0000   1.0000   1.0000   1.0000
     1.0000   1.0000   1.0000   1.0000   1.0097   0.0000   0.0000   0.0000
     0.0000

          k = 0.1667 0.2500 0.2500 (   875 PWs)   bands (ev):

  -114.3946 -68.5810 -68.5810 -68.5782  -6.2785   4.2415   4.3643   4.5709
     4.6998   4.7458   6.3181   8.3405   9.2928  14.1195  20.0768  20.3046
    23.4513

     occupation numbers 
     1.0000   1.0000   1.0000   1.0000   1.0000   1.0000   1.0000   1.0000
     1.0000   1.0000   1.0000   1.0000   1.0000   0.0000   0.0000   0.0000
     0.0000

          k = 0.1667 0.2500 0.3333 (   882 PWs)   bands (ev):

  -114.3945 -68.5836 -68.5808 -68.5781  -6.0900   4.1831   4.3532   4.5127
     4.7391   4.7724   6.2323   8.1083   9.5237  14.3695  18.8322  20.0779
    24.0294

     occupation numbers 
     1.0000   1.0000   1.0000   1.0000   1.0000   1.0000   1.0000   1.0000
     1.0000   1.0000   1.0000   1.0000   1.0000   0.0000   0.0000   0.0000
     0.0000

          k = 0.1667 0.2500 0.4167 (   886 PWs)   bands (ev):

  -114.3944 -68.5854 -68.5807 -68.5780  -5.9437   4.0988   4.2857   4.4896
     4.7545   4.7853   6.2153   8.0518   9.7248  14.5281  17.8857  19.8675
    24.7473

     occupation numbers 
     1.0000   1.0000   1.0000   1.0000   1.0000   1.0000   1.0000   1.0000
     1.0000   1.0000   1.0000   1.0000   1.0003   0.0000   0.0000   0.0000
     0.0000

          k = 0.1667 0.2500-0.5000 (   888 PWs)   bands (ev):

  -114.3944 -68.5861 -68.5807 -68.5779  -5.8882   4.0534   4.2549   4.4867
     4.7405   4.7997   6.2253   8.0539   9.8031  14.5857  17.5381  19.7743
    25.1076

     occupation numbers 
     1.0000   1.0000   1.0000   1.0000   1.0000   1.0000   1.0000   1.0000
     1.0000   1.0000   1.0000   1.0000   1.0018   0.0000   0.0000   0.0000
     0.0000

          k = 0.1667 0.3333 0.3333 (   884 PWs)   bands (ev):

  -114.3943 -68.5835 -68.5833 -68.5779  -5.9217   4.1642   4.3909   4.5142
     4.7709   4.8076   6.3447   7.7030   9.6414  14.2661  18.6016  19.3873
    24.3689

     occupation numbers 
     1.0000   1.0000   1.0000   1.0000   1.0000   1.0000   1.0000   1.0000
     1.0000   1.0000   1.0000   1.0000   1.0000   0.0000   0.0000   0.0000
     0.0000

          k = 0.1667 0.3333 0.4167 (   885 PWs)   bands (ev):

  -114.3942 -68.5852 -68.5832 -68.5778  -5.7920   4.1666   4.3233   4.5246
     4.7269   4.8835   6.4629   7.5200   9.7678  14.0306  18.2163  19.1423
    24.9564

     occupation numbers 
     1.0000   1.0000   1.0000   1.0000   1.0000   1.0000   1.0000   1.0000
     1.0000   1.0000   1.0000   1.0000   1.0008   0.0000   0.0000   0.0000
     0.0000

          k = 0.1667 0.3333-0.5000 (   892 PWs)   bands (ev):

  -114.3942 -68.5860 -68.5833 -68.5777  -5.7430   4.2176   4.2319   4.5389
     4.6958   4.9081   6.5142   7.4866   9.8207  13.9015  18.0887  19.0540
    25.3309

     occupation numbers 
     1.0000   1.0000   1.0000   1.0000   1.0000   1.0000   1.0000   1.0000
     1.0000   1.0000   1.0000   1.0000   1.0026   0.0000   0.0000   0.0000
     0.0000

          k = 0.1667 0.4167 0.4167 (   888 PWs)   bands (ev):

  -114.3941 -68.5852 -68.5851 -68.5776  -5.6757   4.2061   4.3433   4.5105
     4.6437   5.0164   6.7283   7.1984   9.8296  13.4681  18.4009  18.8093
    25.3141

     occupation numbers 
     1.0000   1.0000   1.0000   1.0000   1.0000   1.0000   1.0000   1.0000
     1.0000   1.0000   1.0000   1.0000   1.0031   0.0000   0.0000   0.0000
     0.0000

          k = 0.1667 0.4167-0.5000 (   886 PWs)   bands (ev):

  -114.3941 -68.5858 -68.5851 -68.5775  -5.6318   4.2671   4.2964   4.5245
     4.5832   5.0648   6.8370   7.1155   9.8571  13.2152  18.4721  18.7074
    25.5854

     occupation numbers 
     1.0000   1.0000   1.0000   1.0000   1.0000   1.0000   1.0000   1.0000
     1.0000   1.0000   1.0000   1.0000   1.0053   0.0000   0.0000   0.0000
     0.0000

          k = 0.1667-0.5000-0.5000 (   884 PWs)   bands (ev):

  -114.3940 -68.5857 -68.5857 -68.5775  -5.5900   4.3192   4.3192   4.4944
     4.5149   5.1261   6.9919   6.9919   9.8731  12.9179  18.6112  18.6112
    25.7041

     occupation numbers 
     1.0000   1.0000   1.0000   1.0000   1.0000   1.0000   1.0000   1.0000
     1.0000   1.0000   1.0000   1.0000   1.0071   0.0000   0.0000   0.0000
     0.0000

          k = 0.2500 0.2500 0.2500 (   886 PWs)   bands (ev):

  -114.3945 -68.5809 -68.5809 -68.5808  -6.1119   4.3045   4.3045   4.6317
     4.6317   4.7832   6.2750   8.7211   8.7211  14.2932  19.8510  19.8510
    22.7623

     occupation numbers 
     1.0000   1.0000   1.0000   1.0000   1.0000   1.0000   1.0000   1.0000
     1.0000   1.0000   1.0000   1.0000   1.0000   0.0000   0.0000   0.0000
     0.0000

          k = 0.2500 0.2500 0.3333 (   890 PWs)   bands (ev):

  -114.3944 -68.5834 -68.5807 -68.5807  -5.9352   4.2204   4.2504   4.6037
     4.7319   4.7774   6.3313   8.2998   9.1127  14.4116  18.8872  19.3362
    23.2462

     occupation numbers 
     1.0000   1.0000   1.0000   1.0000   1.0000   1.0000   1.0000   1.0000
     1.0000   1.0000   1.0000   1.0000   1.0000   0.0000   0.0000   0.0000
     0.0000

          k = 0.2500 0.2500 0.4167 (   889 PWs)   bands (ev):

  -114.3942 -68.5853 -68.5805 -68.5805  -5.7985   4.1524   4.1603   4.5975
     4.7189   4.8035   6.4801   8.0578   9.4130  14.4853  18.0311  18.9204
    24.0313

     occupation numbers 
     1.0000   1.0000   1.0000   1.0000   1.0000   1.0000   1.0000   1.0000
     1.0000   1.0000   1.0000   1.0000   1.0000   0.0000   0.0000   0.0000
     0.0000

          k = 0.2500 0.2500-0.5000 (   904 PWs)   bands (ev):

  -114.3942 -68.5860 -68.5806 -68.5806  -5.7469   4.1159   4.1271   4.5969
     4.6898   4.8264   6.5617   7.9779   9.5269  14.5131  17.7058  18.7598
    24.4330

     occupation numbers 
     1.0000   1.0000   1.0000   1.0000   1.0000   1.0000   1.0000   1.0000
     1.0000   1.0000   1.0000   1.0000   1.0000   0.0000   0.0000   0.0000
     0.0000

          k = 0.2500 0.3333 0.3333 (   888 PWs)   bands (ev):

  -114.3942 -68.5832 -68.5832 -68.5805  -5.7716   4.1226   4.2065   4.6559
     4.7068   4.8229   6.5484   8.1842   9.1360  14.3690  18.4235  18.6932
    23.2421

     occupation numbers 
     1.0000   1.0000   1.0000   1.0000   1.0000   1.0000   1.0000   1.0000
     1.0000   1.0000   1.0000   1.0000   1.0000   0.0000   0.0000   0.0000
     0.0000

          k = 0.2500 0.3333 0.4167 (   889 PWs)   bands (ev):

  -114.3941 -68.5851 -68.5831 -68.5803  -5.6456   4.0615   4.1419   4.5894
     4.6795   4.9153   6.8409   7.9385   9.3559  14.2529  17.9055  18.2503
    23.6294

     occupation numbers 
     1.0000   1.0000   1.0000   1.0000   1.0000   1.0000   1.0000   1.0000
     1.0000   1.0000   1.0000   1.0000   1.0000   0.0000   0.0000   0.0000
     0.0000

          k = 0.2500 0.3333-0.5000 (   892 PWs)   bands (ev):

  -114.3941 -68.5858 -68.5830 -68.5803  -5.5980   4.0489   4.1033   4.5430
     4.6821   4.9478   7.0005   7.8154   9.4566  14.1824  17.7580  18.0361
    23.8625

     occupation numbers 
     1.0000   1.0000   1.0000   1.0000   1.0000   1.0000   1.0000   1.0000
     1.0000   1.0000   1.0000   1.0000   1.0000   0.0000   0.0000   0.0000
     0.0000

          k = 0.2500 0.4167 0.4167 (   894 PWs)   bands (ev):

  -114.3940 -68.5850 -68.5849 -68.5802  -5.5281   4.0276   4.1029   4.4324
     4.7049   5.0346   7.2204   7.7787   9.4440  13.8762  17.6895  17.9610
    23.4638

     occupation numbers 
     1.0000   1.0000   1.0000   1.0000   1.0000   1.0000   1.0000   1.0000
     1.0000   1.0000   1.0000   1.0000   1.0000   0.0000   0.0000   0.0000
     0.0000

          k = 0.2500 0.4167-0.5000 (   886 PWs)   bands (ev):

  -114.3939 -68.5856 -68.5849 -68.5801  -5.4838   4.0365   4.0745   4.3576
     4.7120   5.0792   7.4294   7.6731   9.4979  13.6799  17.7323  17.7569
    23.4274

     occupation numbers 
     1.0000   1.0000   1.0000   1.0000   1.0000   1.0000   1.0000   1.0000
     1.0000   1.0000   1.0000   1.0000   1.0000   0.0000   0.0000   0.0000
     0.0000

          k = 0.2500-0.5000-0.5000 (   880 PWs)   bands (ev):

  -114.3939 -68.5854 -68.5854 -68.5800  -5.4407   4.0619   4.0619   4.2527
     4.7201   5.1295   7.6212   7.6212   9.5267  13.4281  17.7103  17.7103
    23.2568

     occupation numbers 
     1.0000   1.0000   1.0000   1.0000   1.0000   1.0000   1.0000   1.0000
     1.0000   1.0000   1.0000   1.0000   1.0000   0.0000   0.0000   0.0000
     0.0000

          k = 0.3333 0.3333 0.3333 (   892 PWs)   bands (ev):

  -114.3941 -68.5831 -68.5830 -68.5830  -5.6131   4.0521   4.0521   4.5430
     4.8349   4.8349   6.8957   8.6834   8.6834  14.4288  17.9485  17.9485
    22.6955

     occupation numbers 
     1.0000   1.0000   1.0000   1.0000   1.0000   1.0000   1.0000   1.0000
     1.0000   1.0000   1.0000   1.0000   1.0000   0.0000   0.0000   0.0000
     0.0000

          k = 0.3333 0.3333 0.4167 (   897 PWs)   bands (ev):

  -114.3940 -68.5849 -68.5830 -68.5829  -5.4911   3.9519   3.9976   4.3817
     4.8430   4.9573   7.3072   8.3154   9.0755  14.4159  17.3649  17.4871
    22.5246

     occupation numbers 
     1.0000   1.0000   1.0000   1.0000   1.0000   1.0000   1.0000   1.0000
     1.0000   1.0000   1.0000   1.0000   1.0000   0.0000   0.0000   0.0000
     0.0000

          k = 0.3333 0.3333-0.5000 (   892 PWs)   bands (ev):

  -114.3939 -68.5855 -68.5829 -68.5828  -5.4450   3.9174   3.9769   4.3152
     4.8458   5.0002   7.5579   8.1063   9.2278  14.3901  17.1411  17.3118
    22.4936

     occupation numbers 
     1.0000   1.0000   1.0000   1.0000   1.0000   1.0000   1.0000   1.0000
     1.0000   1.0000   1.0000   1.0000   1.0000   0.0000   0.0000   0.0000
     0.0000

          k = 0.3333 0.4167 0.4167 (   895 PWs)   bands (ev):

  -114.3938 -68.5847 -68.5847 -68.5828  -5.3721   3.8812   3.9148   4.1823
     4.9044   5.0454   7.7685   8.3763   9.1074  14.3864  16.8986  17.0681
    21.7355

     occupation numbers 
     1.0000   1.0000   1.0000   1.0000   1.0000   1.0000   1.0000   1.0000
     1.0000   1.0000   1.0000   1.0000   1.0000   0.0000   0.0000   0.0000
     0.0000

          k = 0.3333 0.4167-0.5000 (   898 PWs)   bands (ev):

  -114.3938 -68.5854 -68.5847 -68.5828  -5.3271   3.8589   3.8920   4.0956
     4.9142   5.0892   8.0519   8.2406   9.2006  14.3078  16.7739  16.9215
    21.4359

     occupation numbers 
     1.0000   1.0000   1.0000   1.0000   1.0000   1.0000   1.0000   1.0000
     1.0000   1.0000   1.0000   1.0000   1.0000   0.0000   0.0000   0.0000
     0.0000

          k = 0.3333-0.5000-0.5000 (   900 PWs)   bands (ev):

  -114.3938 -68.5854 -68.5854 -68.5827  -5.2827   3.8627   3.8627   3.9868
     4.9273   5.1328   8.2620   8.2620   9.2321  14.1723  16.7656  16.7656
    21.0129

     occupation numbers 
     1.0000   1.0000   1.0000   1.0000   1.0000   1.0000   1.0000   1.0000
     1.0000   1.0000   1.0000   1.0000   1.0000   0.0000   0.0000   0.0000
     0.0000

          k = 0.4167 0.4167 0.4167 (   898 PWs)   bands (ev):

  -114.3937 -68.5846 -68.5846 -68.5846  -5.2518   3.7970   3.7970   3.9684
     5.0515   5.0515   8.2635   8.8536   8.8536  14.8124  16.3686  16.3686
    20.3972

     occupation numbers 
     1.0000   1.0000   1.0000   1.0000   1.0000   1.0000   1.0000   1.0000
     1.0000   1.0000   1.0000   1.0000   1.0000   0.0000   0.0000   0.0000
     0.0000

          k = 0.4167 0.4167-0.5000 (   900 PWs)   bands (ev):

  -114.3937 -68.5853 -68.5847 -68.5845  -5.2063   3.7569   3.7776   3.8769
     5.0536   5.1051   8.5663   8.6627   9.0427  14.9273  16.0979  16.2750
    19.8446

     occupation numbers 
     1.0000   1.0000   1.0000   1.0000   1.0000   1.0000   1.0000   1.0000
     1.0000   1.0000   1.0000   1.0000   1.0000   0.0000   0.0000   0.0000
     0.0000

          k = 0.4167-0.5000-0.5000 (   900 PWs)   bands (ev):

  -114.3937 -68.5853 -68.5853 -68.5844  -5.1606   3.7389   3.7389   3.7770
     5.0802   5.1353   8.7760   8.7760   9.0445  15.1036  16.0235  16.0235
    19.1393

     occupation numbers 
     1.0000   1.0000   1.0000   1.0000   1.0000   1.0000   1.0000   1.0000
     1.0000   1.0000   1.0000   1.0000   1.0000   0.0000   0.0000   0.0000
     0.0000

          k =-0.5000-0.5000-0.5000 (   912 PWs)   bands (ev):

  -114.3936 -68.5853 -68.5853 -68.5853  -5.1145   3.6970   3.6970   3.6970
     5.1362   5.1362   8.9812   8.9812   8.9812  15.7347  15.7347  15.7347
    18.1872

     occupation numbers 
     1.0000   1.0000   1.0000   1.0000   1.0000   1.0000   1.0000   1.0000
     1.0000   1.0000   1.0000   1.0000   1.0000   0.0000   0.0000   0.0000
     0.0000

     the Fermi energy is    10.3950 ev

!    total energy              =    -503.16978656 Ry
     estimated scf accuracy    <          8.2E-09 Ry
     smearing contrib. (-TS)   =       0.00116304 Ry
     internal energy E=F+TS    =    -503.17094960 Ry

     The total energy is F=E-TS. E is the sum of the following terms:
     one-electron contribution =    -371.14473823 Ry
     hartree contribution      =     197.29615957 Ry
     xc contribution           =     -49.57323822 Ry
     ewald contribution        =    -270.21417646 Ry
     one-center paw contrib.   =      -9.53495626 Ry
      -> PAW hartree energy AE =      24.94415840 Ry
      -> PAW hartree energy PS =     -24.83460585 Ry
      -> PAW xc energy AE      =     -16.48941760 Ry
      -> PAW xc energy PS      =       6.84490879 Ry
      -> total E_H with PAW    =     197.40571212 Ry
      -> total E_XC with PAW   =     -59.21774703 Ry

     convergence has been achieved in   9 iterations

     Forces acting on atoms (cartesian axes, Ry/au):

     atom    1 type  2   force =     0.00000000    0.00000000    0.00000000
     atom    2 type  1   force =     0.00000000    0.00000000    0.00000000
     The non-local contrib.  to forces
     atom    1 type  2   force =     0.00000000    0.00000000    0.00000000
     atom    2 type  1   force =     0.00000000    0.00000000    0.00000000
     The ionic contribution  to forces
     atom    1 type  2   force =    -0.00000000   -0.00000000   -0.00000000
     atom    2 type  1   force =     0.00000000    0.00000000    0.00000000
     The local contribution  to forces
     atom    1 type  2   force =     0.00000000   -0.00000000    0.00000000
     atom    2 type  1   force =     0.00000000    0.00000000    0.00000000
     The core correction contribution to forces
     atom    1 type  2   force =     0.00000000    0.00000000    0.00000000
     atom    2 type  1   force =     0.00000000    0.00000000    0.00000000
     The Hubbard contrib.    to forces
     atom    1 type  2   force =     0.00000000    0.00000000    0.00000000
     atom    2 type  1   force =     0.00000000    0.00000000    0.00000000
     The SCF correction term to forces
     atom    1 type  2   force =     0.00000000    0.00000000   -0.00000000
     atom    2 type  1   force =    -0.00000000    0.00000000    0.00000000

     Total force =     0.000000     Total SCF correction =     0.000000


     Computing stress (Cartesian axis) and pressure

          total   stress  (Ry/bohr**3)                   (kbar)     P=     -152.65
  -0.00103766   0.00000000   0.00000000         -152.65        0.00        0.00
   0.00000000  -0.00103766   0.00000000            0.00     -152.65        0.00
   0.00000000   0.00000000  -0.00103766            0.00        0.00     -152.65

     kinetic stress (kbar)  37552.26      0.00      0.00
                                0.00  37552.26      0.00
                                0.00      0.00  37552.26

     local   stress (kbar)   3028.44      0.00      0.00
                                0.00   3028.44     -0.00
                                0.00     -0.00   3028.44

     nonloc. stress (kbar)   -867.10      0.00      0.00
                                0.00   -867.10      0.00
                                0.00      0.00   -867.10

     hartree stress (kbar)  65339.07     -0.00     -0.00
                               -0.00  65339.07      0.00
                               -0.00      0.00  65339.07

     exc-cor stress (kbar) -15296.21      0.00     -0.00
                                0.00 -15296.21      0.00
                               -0.00      0.00 -15296.21

     corecor stress (kbar)   -421.60      0.00      0.00
                                0.00   -421.60     -0.00
                                0.00     -0.00   -421.60

     ewald   stress (kbar) -89487.52      0.00     -0.00
                                0.00 -89487.52     -0.00
                               -0.00     -0.00 -89487.52

     hubbard stress (kbar)      0.00      0.00      0.00
                                0.00      0.00      0.00
                                0.00      0.00      0.00

     DFT-D   stress (kbar)      0.00      0.00      0.00
                                0.00      0.00      0.00
                                0.00      0.00      0.00

     XDM     stress (kbar)      0.00      0.00      0.00
                                0.00      0.00      0.00
                                0.00      0.00      0.00

     dft-nl  stress (kbar)      0.00      0.00      0.00
                                0.00      0.00      0.00
                                0.00      0.00      0.00

     TS-vdW  stress (kbar)      0.00      0.00      0.00
                                0.00      0.00      0.00
                                0.00      0.00      0.00

     MDB     stress (kbar)      0.00      0.00      0.00
                                0.00      0.00      0.00
                                0.00      0.00      0.00

     3D-RISM stress (kbar)      0.00      0.00      0.00
                                0.00      0.00      0.00
                                0.00      0.00      0.00


     Writing all to output data dir ./temp_cubic/aiida.save/ :
     XML data file, charge density, pseudopotentials, collected wavefunctions

     init_run     :     63.92s CPU      2.91s WALL (       1 calls)
     electrons    :   4149.25s CPU    176.29s WALL (       1 calls)
     forces       :     14.04s CPU      0.62s WALL (       1 calls)
     stress       :     40.89s CPU      1.96s WALL (       1 calls)

     Called by init_run:
     wfcinit      :     58.09s CPU      2.43s WALL (       1 calls)
     wfcinit:atom :      1.39s CPU      0.05s WALL (      84 calls)
     wfcinit:wfcr :     54.21s CPU      2.27s WALL (      84 calls)
     potinit      :      2.28s CPU      0.12s WALL (       1 calls)
     hinit0       :      1.64s CPU      0.26s WALL (       1 calls)

     Called by electrons:
     c_bands      :   3448.46s CPU    145.86s WALL (       9 calls)
     sum_band     :    685.69s CPU     29.57s WALL (       9 calls)
     v_of_rho     :      2.85s CPU      0.14s WALL (      10 calls)
     v_h          :      0.75s CPU      0.04s WALL (      10 calls)
     v_xc         :      2.12s CPU      0.11s WALL (      12 calls)
     newd         :      7.42s CPU      0.49s WALL (      10 calls)
     PAW_pot      :      6.84s CPU      0.29s WALL (      10 calls)
     mix_rho      :      0.57s CPU      0.03s WALL (       9 calls)

     Called by c_bands:
     init_us_2    :     41.30s CPU      1.88s WALL (    1764 calls)
     cegterg      :   3344.52s CPU    141.59s WALL (     756 calls)

     Called by sum_band:
     sum_band:wei :      0.52s CPU      0.02s WALL (       9 calls)
     sum_band:loo :    681.09s CPU     29.05s WALL (       9 calls)
     sum_band:buf :      0.69s CPU      0.03s WALL (     756 calls)
     sum_band:ini :     21.45s CPU      0.90s WALL (     756 calls)
     sum_band:cal :      9.53s CPU      0.47s WALL (     756 calls)
     sum_band:bec :     37.46s CPU      1.54s WALL (     756 calls)
     addusdens    :      3.63s CPU      0.45s WALL (       9 calls)
                                        0.00s GPU  (       9 calls)
     addusd:skk   :      0.00s CPU      0.00s WALL (      18 calls)
                                        0.00s GPU  (      18 calls)

     Called by *egterg:
     cdiaghg      :     19.05s CPU      0.68s WALL (    2399 calls)
     cegterg:over :     44.29s CPU      1.68s WALL (    1643 calls)
     cegterg:upda :     62.35s CPU      2.54s WALL (    1643 calls)
     cegterg:last :     73.71s CPU      2.48s WALL (    1510 calls)
     h_psi        :   2995.83s CPU    127.45s WALL (    2483 calls)
     s_psi        :     33.52s CPU      1.34s WALL (    2483 calls)
     g_psi        :     48.41s CPU      2.13s WALL (    1643 calls)

     Called by h_psi:
     h_psi:calbec :     30.98s CPU      1.27s WALL (    2483 calls)
     vloc_psi     :   2852.13s CPU    121.41s WALL (    2483 calls)
     add_vuspsi   :     29.57s CPU      1.33s WALL (    2483 calls)

     General routines
     calbec       :     46.04s CPU      1.95s WALL (    3659 calls)
     fft          :      1.22s CPU      0.07s WALL (     153 calls)
     ffts         :      0.00s CPU      0.00s WALL (      19 calls)
     fftw         :    154.73s CPU      7.31s WALL (   76136 calls)
     interpolate  :      0.01s CPU      0.01s WALL (      10 calls)

     Parallel routines

     PAW routines
     PAW_pot      :      6.84s CPU      0.29s WALL (      10 calls)
     PAW_symme    :      0.00s CPU      0.00s WALL (      19 calls)

     PWSCF        :      1h11m CPU   3m 5.51s WALL


   This run was terminated on:  21:39:11   7Jun2024            

=------------------------------------------------------------------------------=
   JOB DONE.
=------------------------------------------------------------------------------=
