
     Program PWSCF v.7.3.1 starts on  7Jun2024 at 23:57: 7 

     This program is part of the open-source Quantum ESPRESSO suite
     for quantum simulation of materials; please cite
         "P. Giannozzi et al., J. Phys.:Condens. Matter 21 395502 (2009);
         "P. Giannozzi et al., J. Phys.:Condens. Matter 29 465901 (2017);
         "P. Giannozzi et al., J. Chem. Phys. 152 154105 (2020);
          URL http://www.quantum-espresso.org", 
     in publications or presentations arising from this work. More details at
     http://www.quantum-espresso.org/quote

     Parallel version (MPI & OpenMP), running on      24 processor cores
     Number of MPI processes:                 1
     Threads/MPI process:                    24

     MPI processes distributed on     1 nodes
     3880 MiB available memory on the printing compute node when the environment starts

     Waiting for input...
     Reading input from standard input

     Current dimensions of program PWSCF are:
     Max number of different atomic species (ntypx) = 10
     Max number of k-points (npk) =  40000
     Max angular momentum in pseudopotentials (lmaxx) =  4
     file O.pbe-n-kjpaw_psl.0.1.UPF: wavefunction(s)  2P renormalized
     Message from routine setup:
     using ibrav=0 with symmetry is DISCOURAGED, use correct ibrav instead

     Subspace diagonalization in iterative solution of the eigenvalue problem:
     a serial algorithm will be used


     G-vector sticks info
     --------------------
     sticks:   dense  smooth     PW     G-vecs:    dense   smooth      PW
     Sum         829     421    137                17845     6355    1213

     Using Slab Decomposition



     bravais-lattice index     =            0
     lattice parameter (alat)  =       5.0869  a.u.
     unit-cell volume          =     131.6291 (a.u.)^3
     number of atoms/cell      =            2
     number of atomic types    =            2
     number of electrons       =        26.00
     number of Kohn-Sham states=           17
     kinetic-energy cutoff     =      50.0000  Ry
     charge density cutoff     =     400.0000  Ry
     scf convergence threshold =      1.0E-08
     mixing beta               =       0.4000
     number of iterations used =            8  plain     mixing
     Exchange-correlation= SLA  PW   PBE  PBE
                           (   1   4   3   4   0   0   0)

     celldm(1)=   5.086871  celldm(2)=   0.000000  celldm(3)=   0.000000
     celldm(4)=   0.000000  celldm(5)=   0.000000  celldm(6)=   0.000000

     crystal axes: (cart. coord. in units of alat)
               a(1) = (   1.000000   0.000000   0.000000 )  
               a(2) = (   0.000000   1.000000   0.000000 )  
               a(3) = (   0.000000   0.000000   1.000000 )  

     reciprocal axes: (cart. coord. in units 2 pi/alat)
               b(1) = (  1.000000  0.000000  0.000000 )  
               b(2) = (  0.000000  1.000000  0.000000 )  
               b(3) = (  0.000000  0.000000  1.000000 )  


     PseudoPot. # 1 for O  read from file:
     ../SSSP_1.3.0_PBE_efficiency/O.pbe-n-kjpaw_psl.0.1.UPF
     MD5 check sum: 0234752ac141de4415c5fc33072bef88
     Pseudo is Projector augmented-wave + core cor, Zval =  6.0
     Generated using "atomic" code by A. Dal Corso  v.5.0.99 svn rev. 10869
     Shape of augmentation charge: BESSEL
     Using radial grid of 1095 points,  4 beta functions with: 
                l(1) =   0
                l(2) =   0
                l(3) =   1
                l(4) =   1
     Q(r) pseudized with 0 coefficients 


     PseudoPot. # 2 for Zn read from file:
     ../SSSP_1.3.0_PBE_efficiency/Zn_pbe_v1.uspp.F.UPF
     MD5 check sum: df62231357ef9e81f77b2b3087fa5675
     Pseudo is Ultrasoft, Zval = 20.0
     Generated by new atomic code, or converted to UPF format
     Using radial grid of  943 points,  6 beta functions with: 
                l(1) =   0
                l(2) =   0
                l(3) =   1
                l(4) =   1
                l(5) =   2
                l(6) =   2
     Q(r) pseudized with  8 coefficients,  rinner =    1.100   1.100   1.100
                                                       1.100   1.100

     atomic species   valence    mass     pseudopotential
     O                 6.00    15.99940     O ( 1.00)
     Zn               20.00    65.38000     Zn( 1.00)

     48 Sym. Ops., with inversion, found


                                    s                        frac. trans.

      isym =  1     identity                                     

 cryst.   s( 1) = (     1          0          0      )
                  (     0          1          0      )
                  (     0          0          1      )

 cart.    s( 1) = (  1.0000000  0.0000000  0.0000000 )
                  (  0.0000000  1.0000000  0.0000000 )
                  (  0.0000000  0.0000000  1.0000000 )


      isym =  2     180 deg rotation - cart. axis [0,0,1]        

 cryst.   s( 2) = (    -1          0          0      )
                  (     0         -1          0      )
                  (     0          0          1      )

 cart.    s( 2) = ( -1.0000000  0.0000000  0.0000000 )
                  (  0.0000000 -1.0000000  0.0000000 )
                  (  0.0000000  0.0000000  1.0000000 )


      isym =  3     180 deg rotation - cart. axis [0,1,0]        

 cryst.   s( 3) = (    -1          0          0      )
                  (     0          1          0      )
                  (     0          0         -1      )

 cart.    s( 3) = ( -1.0000000  0.0000000  0.0000000 )
                  (  0.0000000  1.0000000  0.0000000 )
                  (  0.0000000  0.0000000 -1.0000000 )


      isym =  4     180 deg rotation - cart. axis [1,0,0]        

 cryst.   s( 4) = (     1          0          0      )
                  (     0         -1          0      )
                  (     0          0         -1      )

 cart.    s( 4) = (  1.0000000  0.0000000  0.0000000 )
                  (  0.0000000 -1.0000000  0.0000000 )
                  (  0.0000000  0.0000000 -1.0000000 )


      isym =  5     180 deg rotation - cart. axis [1,1,0]        

 cryst.   s( 5) = (     0          1          0      )
                  (     1          0          0      )
                  (     0          0         -1      )

 cart.    s( 5) = (  0.0000000  1.0000000  0.0000000 )
                  (  1.0000000  0.0000000  0.0000000 )
                  (  0.0000000  0.0000000 -1.0000000 )


      isym =  6     180 deg rotation - cart. axis [1,-1,0]       

 cryst.   s( 6) = (     0         -1          0      )
                  (    -1          0          0      )
                  (     0          0         -1      )

 cart.    s( 6) = (  0.0000000 -1.0000000  0.0000000 )
                  ( -1.0000000  0.0000000  0.0000000 )
                  (  0.0000000  0.0000000 -1.0000000 )


      isym =  7      90 deg rotation - cart. axis [0,0,-1]       

 cryst.   s( 7) = (     0         -1          0      )
                  (     1          0          0      )
                  (     0          0          1      )

 cart.    s( 7) = (  0.0000000  1.0000000  0.0000000 )
                  ( -1.0000000  0.0000000  0.0000000 )
                  (  0.0000000  0.0000000  1.0000000 )


      isym =  8      90 deg rotation - cart. axis [0,0,1]        

 cryst.   s( 8) = (     0          1          0      )
                  (    -1          0          0      )
                  (     0          0          1      )

 cart.    s( 8) = (  0.0000000 -1.0000000  0.0000000 )
                  (  1.0000000  0.0000000  0.0000000 )
                  (  0.0000000  0.0000000  1.0000000 )


      isym =  9     180 deg rotation - cart. axis [1,0,1]        

 cryst.   s( 9) = (     0          0          1      )
                  (     0         -1          0      )
                  (     1          0          0      )

 cart.    s( 9) = (  0.0000000  0.0000000  1.0000000 )
                  (  0.0000000 -1.0000000  0.0000000 )
                  (  1.0000000  0.0000000  0.0000000 )


      isym = 10     180 deg rotation - cart. axis [-1,0,1]       

 cryst.   s(10) = (     0          0         -1      )
                  (     0         -1          0      )
                  (    -1          0          0      )

 cart.    s(10) = (  0.0000000  0.0000000 -1.0000000 )
                  (  0.0000000 -1.0000000  0.0000000 )
                  ( -1.0000000  0.0000000  0.0000000 )


      isym = 11      90 deg rotation - cart. axis [0,1,0]        

 cryst.   s(11) = (     0          0         -1      )
                  (     0          1          0      )
                  (     1          0          0      )

 cart.    s(11) = (  0.0000000  0.0000000  1.0000000 )
                  (  0.0000000  1.0000000  0.0000000 )
                  ( -1.0000000  0.0000000  0.0000000 )


      isym = 12      90 deg rotation - cart. axis [0,-1,0]       

 cryst.   s(12) = (     0          0          1      )
                  (     0          1          0      )
                  (    -1          0          0      )

 cart.    s(12) = (  0.0000000  0.0000000 -1.0000000 )
                  (  0.0000000  1.0000000  0.0000000 )
                  (  1.0000000  0.0000000  0.0000000 )


      isym = 13     180 deg rotation - cart. axis [0,1,1]        

 cryst.   s(13) = (    -1          0          0      )
                  (     0          0          1      )
                  (     0          1          0      )

 cart.    s(13) = ( -1.0000000  0.0000000  0.0000000 )
                  (  0.0000000  0.0000000  1.0000000 )
                  (  0.0000000  1.0000000  0.0000000 )


      isym = 14     180 deg rotation - cart. axis [0,1,-1]       

 cryst.   s(14) = (    -1          0          0      )
                  (     0          0         -1      )
                  (     0         -1          0      )

 cart.    s(14) = ( -1.0000000  0.0000000  0.0000000 )
                  (  0.0000000  0.0000000 -1.0000000 )
                  (  0.0000000 -1.0000000  0.0000000 )


      isym = 15      90 deg rotation - cart. axis [-1,0,0]       

 cryst.   s(15) = (     1          0          0      )
                  (     0          0         -1      )
                  (     0          1          0      )

 cart.    s(15) = (  1.0000000  0.0000000  0.0000000 )
                  (  0.0000000  0.0000000  1.0000000 )
                  (  0.0000000 -1.0000000  0.0000000 )


      isym = 16      90 deg rotation - cart. axis [1,0,0]        

 cryst.   s(16) = (     1          0          0      )
                  (     0          0          1      )
                  (     0         -1          0      )

 cart.    s(16) = (  1.0000000  0.0000000  0.0000000 )
                  (  0.0000000  0.0000000 -1.0000000 )
                  (  0.0000000  1.0000000  0.0000000 )


      isym = 17     120 deg rotation - cart. axis [-1,-1,-1]     

 cryst.   s(17) = (     0          0          1      )
                  (     1          0          0      )
                  (     0          1          0      )

 cart.    s(17) = (  0.0000000  1.0000000  0.0000000 )
                  (  0.0000000  0.0000000  1.0000000 )
                  (  1.0000000  0.0000000  0.0000000 )


      isym = 18     120 deg rotation - cart. axis [-1,1,1]       

 cryst.   s(18) = (     0          0         -1      )
                  (    -1          0          0      )
                  (     0          1          0      )

 cart.    s(18) = (  0.0000000 -1.0000000  0.0000000 )
                  (  0.0000000  0.0000000  1.0000000 )
                  ( -1.0000000  0.0000000  0.0000000 )


      isym = 19     120 deg rotation - cart. axis [1,1,-1]       

 cryst.   s(19) = (     0          0         -1      )
                  (     1          0          0      )
                  (     0         -1          0      )

 cart.    s(19) = (  0.0000000  1.0000000  0.0000000 )
                  (  0.0000000  0.0000000 -1.0000000 )
                  ( -1.0000000  0.0000000  0.0000000 )


      isym = 20     120 deg rotation - cart. axis [1,-1,1]       

 cryst.   s(20) = (     0          0          1      )
                  (    -1          0          0      )
                  (     0         -1          0      )

 cart.    s(20) = (  0.0000000 -1.0000000  0.0000000 )
                  (  0.0000000  0.0000000 -1.0000000 )
                  (  1.0000000  0.0000000  0.0000000 )


      isym = 21     120 deg rotation - cart. axis [1,1,1]        

 cryst.   s(21) = (     0          1          0      )
                  (     0          0          1      )
                  (     1          0          0      )

 cart.    s(21) = (  0.0000000  0.0000000  1.0000000 )
                  (  1.0000000  0.0000000  0.0000000 )
                  (  0.0000000  1.0000000  0.0000000 )


      isym = 22     120 deg rotation - cart. axis [-1,1,-1]      

 cryst.   s(22) = (     0         -1          0      )
                  (     0          0         -1      )
                  (     1          0          0      )

 cart.    s(22) = (  0.0000000  0.0000000  1.0000000 )
                  ( -1.0000000  0.0000000  0.0000000 )
                  (  0.0000000 -1.0000000  0.0000000 )


      isym = 23     120 deg rotation - cart. axis [1,-1,-1]      

 cryst.   s(23) = (     0         -1          0      )
                  (     0          0          1      )
                  (    -1          0          0      )

 cart.    s(23) = (  0.0000000  0.0000000 -1.0000000 )
                  ( -1.0000000  0.0000000  0.0000000 )
                  (  0.0000000  1.0000000  0.0000000 )


      isym = 24     120 deg rotation - cart. axis [-1,-1,1]      

 cryst.   s(24) = (     0          1          0      )
                  (     0          0         -1      )
                  (    -1          0          0      )

 cart.    s(24) = (  0.0000000  0.0000000 -1.0000000 )
                  (  1.0000000  0.0000000  0.0000000 )
                  (  0.0000000 -1.0000000  0.0000000 )


      isym = 25     inversion                                    

 cryst.   s(25) = (    -1          0          0      )
                  (     0         -1          0      )
                  (     0          0         -1      )

 cart.    s(25) = ( -1.0000000  0.0000000  0.0000000 )
                  (  0.0000000 -1.0000000  0.0000000 )
                  (  0.0000000  0.0000000 -1.0000000 )


      isym = 26     inv. 180 deg rotation - cart. axis [0,0,1]   

 cryst.   s(26) = (     1          0          0      )
                  (     0          1          0      )
                  (     0          0         -1      )

 cart.    s(26) = (  1.0000000  0.0000000  0.0000000 )
                  (  0.0000000  1.0000000  0.0000000 )
                  (  0.0000000  0.0000000 -1.0000000 )


      isym = 27     inv. 180 deg rotation - cart. axis [0,1,0]   

 cryst.   s(27) = (     1          0          0      )
                  (     0         -1          0      )
                  (     0          0          1      )

 cart.    s(27) = (  1.0000000  0.0000000  0.0000000 )
                  (  0.0000000 -1.0000000  0.0000000 )
                  (  0.0000000  0.0000000  1.0000000 )


      isym = 28     inv. 180 deg rotation - cart. axis [1,0,0]   

 cryst.   s(28) = (    -1          0          0      )
                  (     0          1          0      )
                  (     0          0          1      )

 cart.    s(28) = ( -1.0000000  0.0000000  0.0000000 )
                  (  0.0000000  1.0000000  0.0000000 )
                  (  0.0000000  0.0000000  1.0000000 )


      isym = 29     inv. 180 deg rotation - cart. axis [1,1,0]   

 cryst.   s(29) = (     0         -1          0      )
                  (    -1          0          0      )
                  (     0          0          1      )

 cart.    s(29) = (  0.0000000 -1.0000000  0.0000000 )
                  ( -1.0000000  0.0000000  0.0000000 )
                  (  0.0000000  0.0000000  1.0000000 )


      isym = 30     inv. 180 deg rotation - cart. axis [1,-1,0]  

 cryst.   s(30) = (     0          1          0      )
                  (     1          0          0      )
                  (     0          0          1      )

 cart.    s(30) = (  0.0000000  1.0000000  0.0000000 )
                  (  1.0000000  0.0000000  0.0000000 )
                  (  0.0000000  0.0000000  1.0000000 )


      isym = 31     inv.  90 deg rotation - cart. axis [0,0,-1]  

 cryst.   s(31) = (     0          1          0      )
                  (    -1          0          0      )
                  (     0          0         -1      )

 cart.    s(31) = (  0.0000000 -1.0000000  0.0000000 )
                  (  1.0000000  0.0000000  0.0000000 )
                  (  0.0000000  0.0000000 -1.0000000 )


      isym = 32     inv.  90 deg rotation - cart. axis [0,0,1]   

 cryst.   s(32) = (     0         -1          0      )
                  (     1          0          0      )
                  (     0          0         -1      )

 cart.    s(32) = (  0.0000000  1.0000000  0.0000000 )
                  ( -1.0000000  0.0000000  0.0000000 )
                  (  0.0000000  0.0000000 -1.0000000 )


      isym = 33     inv. 180 deg rotation - cart. axis [1,0,1]   

 cryst.   s(33) = (     0          0         -1      )
                  (     0          1          0      )
                  (    -1          0          0      )

 cart.    s(33) = (  0.0000000  0.0000000 -1.0000000 )
                  (  0.0000000  1.0000000  0.0000000 )
                  ( -1.0000000  0.0000000  0.0000000 )


      isym = 34     inv. 180 deg rotation - cart. axis [-1,0,1]  

 cryst.   s(34) = (     0          0          1      )
                  (     0          1          0      )
                  (     1          0          0      )

 cart.    s(34) = (  0.0000000  0.0000000  1.0000000 )
                  (  0.0000000  1.0000000  0.0000000 )
                  (  1.0000000  0.0000000  0.0000000 )


      isym = 35     inv.  90 deg rotation - cart. axis [0,1,0]   

 cryst.   s(35) = (     0          0          1      )
                  (     0         -1          0      )
                  (    -1          0          0      )

 cart.    s(35) = (  0.0000000  0.0000000 -1.0000000 )
                  (  0.0000000 -1.0000000  0.0000000 )
                  (  1.0000000  0.0000000  0.0000000 )


      isym = 36     inv.  90 deg rotation - cart. axis [0,-1,0]  

 cryst.   s(36) = (     0          0         -1      )
                  (     0         -1          0      )
                  (     1          0          0      )

 cart.    s(36) = (  0.0000000  0.0000000  1.0000000 )
                  (  0.0000000 -1.0000000  0.0000000 )
                  ( -1.0000000  0.0000000  0.0000000 )


      isym = 37     inv. 180 deg rotation - cart. axis [0,1,1]   

 cryst.   s(37) = (     1          0          0      )
                  (     0          0         -1      )
                  (     0         -1          0      )

 cart.    s(37) = (  1.0000000  0.0000000  0.0000000 )
                  (  0.0000000  0.0000000 -1.0000000 )
                  (  0.0000000 -1.0000000  0.0000000 )


      isym = 38     inv. 180 deg rotation - cart. axis [0,1,-1]  

 cryst.   s(38) = (     1          0          0      )
                  (     0          0          1      )
                  (     0          1          0      )

 cart.    s(38) = (  1.0000000  0.0000000  0.0000000 )
                  (  0.0000000  0.0000000  1.0000000 )
                  (  0.0000000  1.0000000  0.0000000 )


      isym = 39     inv.  90 deg rotation - cart. axis [-1,0,0]  

 cryst.   s(39) = (    -1          0          0      )
                  (     0          0          1      )
                  (     0         -1          0      )

 cart.    s(39) = ( -1.0000000  0.0000000  0.0000000 )
                  (  0.0000000  0.0000000 -1.0000000 )
                  (  0.0000000  1.0000000  0.0000000 )


      isym = 40     inv.  90 deg rotation - cart. axis [1,0,0]   

 cryst.   s(40) = (    -1          0          0      )
                  (     0          0         -1      )
                  (     0          1          0      )

 cart.    s(40) = ( -1.0000000  0.0000000  0.0000000 )
                  (  0.0000000  0.0000000  1.0000000 )
                  (  0.0000000 -1.0000000  0.0000000 )


      isym = 41     inv. 120 deg rotation - cart. axis [-1,-1,-1]

 cryst.   s(41) = (     0          0         -1      )
                  (    -1          0          0      )
                  (     0         -1          0      )

 cart.    s(41) = (  0.0000000 -1.0000000  0.0000000 )
                  (  0.0000000  0.0000000 -1.0000000 )
                  ( -1.0000000  0.0000000  0.0000000 )


      isym = 42     inv. 120 deg rotation - cart. axis [-1,1,1]  

 cryst.   s(42) = (     0          0          1      )
                  (     1          0          0      )
                  (     0         -1          0      )

 cart.    s(42) = (  0.0000000  1.0000000  0.0000000 )
                  (  0.0000000  0.0000000 -1.0000000 )
                  (  1.0000000  0.0000000  0.0000000 )


      isym = 43     inv. 120 deg rotation - cart. axis [1,1,-1]  

 cryst.   s(43) = (     0          0          1      )
                  (    -1          0          0      )
                  (     0          1          0      )

 cart.    s(43) = (  0.0000000 -1.0000000  0.0000000 )
                  (  0.0000000  0.0000000  1.0000000 )
                  (  1.0000000  0.0000000  0.0000000 )


      isym = 44     inv. 120 deg rotation - cart. axis [1,-1,1]  

 cryst.   s(44) = (     0          0         -1      )
                  (     1          0          0      )
                  (     0          1          0      )

 cart.    s(44) = (  0.0000000  1.0000000  0.0000000 )
                  (  0.0000000  0.0000000  1.0000000 )
                  ( -1.0000000  0.0000000  0.0000000 )


      isym = 45     inv. 120 deg rotation - cart. axis [1,1,1]   

 cryst.   s(45) = (     0         -1          0      )
                  (     0          0         -1      )
                  (    -1          0          0      )

 cart.    s(45) = (  0.0000000  0.0000000 -1.0000000 )
                  ( -1.0000000  0.0000000  0.0000000 )
                  (  0.0000000 -1.0000000  0.0000000 )


      isym = 46     inv. 120 deg rotation - cart. axis [-1,1,-1] 

 cryst.   s(46) = (     0          1          0      )
                  (     0          0          1      )
                  (    -1          0          0      )

 cart.    s(46) = (  0.0000000  0.0000000 -1.0000000 )
                  (  1.0000000  0.0000000  0.0000000 )
                  (  0.0000000  1.0000000  0.0000000 )


      isym = 47     inv. 120 deg rotation - cart. axis [1,-1,-1] 

 cryst.   s(47) = (     0          1          0      )
                  (     0          0         -1      )
                  (     1          0          0      )

 cart.    s(47) = (  0.0000000  0.0000000  1.0000000 )
                  (  1.0000000  0.0000000  0.0000000 )
                  (  0.0000000 -1.0000000  0.0000000 )


      isym = 48     inv. 120 deg rotation - cart. axis [-1,-1,1] 

 cryst.   s(48) = (     0         -1          0      )
                  (     0          0          1      )
                  (     1          0          0      )

 cart.    s(48) = (  0.0000000  0.0000000  1.0000000 )
                  ( -1.0000000  0.0000000  0.0000000 )
                  (  0.0000000  1.0000000  0.0000000 )


   Cartesian axes

     site n.     atom                  positions (alat units)
         1        Zn     tau(   1) = (   0.0000000   0.0000000   0.0000000  )
         2        O      tau(   2) = (   0.5000000   0.5000000   0.5000000  )

   Crystallographic axes

     site n.     atom                  positions (cryst. coord.)
         1        Zn     tau(   1) = (  0.0000000  0.0000000  0.0000000  )
         2        O      tau(   2) = (  0.5000000  0.5000000  0.5000000  )

     number of k points=    56  Marzari-Vanderbilt smearing, width (Ry)=  0.0147
                       cart. coord. in units 2pi/alat
        k(    1) = (   0.0000000   0.0000000   0.0000000), wk =   0.0020000
        k(    2) = (   0.0000000   0.0000000   0.1000000), wk =   0.0120000
        k(    3) = (   0.0000000   0.0000000   0.2000000), wk =   0.0120000
        k(    4) = (   0.0000000   0.0000000   0.3000000), wk =   0.0120000
        k(    5) = (   0.0000000   0.0000000   0.4000000), wk =   0.0120000
        k(    6) = (   0.0000000   0.0000000  -0.5000000), wk =   0.0060000
        k(    7) = (   0.0000000   0.1000000   0.1000000), wk =   0.0240000
        k(    8) = (   0.0000000   0.1000000   0.2000000), wk =   0.0480000
        k(    9) = (   0.0000000   0.1000000   0.3000000), wk =   0.0480000
        k(   10) = (   0.0000000   0.1000000   0.4000000), wk =   0.0480000
        k(   11) = (   0.0000000   0.1000000  -0.5000000), wk =   0.0240000
        k(   12) = (   0.0000000   0.2000000   0.2000000), wk =   0.0240000
        k(   13) = (   0.0000000   0.2000000   0.3000000), wk =   0.0480000
        k(   14) = (   0.0000000   0.2000000   0.4000000), wk =   0.0480000
        k(   15) = (   0.0000000   0.2000000  -0.5000000), wk =   0.0240000
        k(   16) = (   0.0000000   0.3000000   0.3000000), wk =   0.0240000
        k(   17) = (   0.0000000   0.3000000   0.4000000), wk =   0.0480000
        k(   18) = (   0.0000000   0.3000000  -0.5000000), wk =   0.0240000
        k(   19) = (   0.0000000   0.4000000   0.4000000), wk =   0.0240000
        k(   20) = (   0.0000000   0.4000000  -0.5000000), wk =   0.0240000
        k(   21) = (   0.0000000  -0.5000000  -0.5000000), wk =   0.0060000
        k(   22) = (   0.1000000   0.1000000   0.1000000), wk =   0.0160000
        k(   23) = (   0.1000000   0.1000000   0.2000000), wk =   0.0480000
        k(   24) = (   0.1000000   0.1000000   0.3000000), wk =   0.0480000
        k(   25) = (   0.1000000   0.1000000   0.4000000), wk =   0.0480000
        k(   26) = (   0.1000000   0.1000000  -0.5000000), wk =   0.0240000
        k(   27) = (   0.1000000   0.2000000   0.2000000), wk =   0.0480000
        k(   28) = (   0.1000000   0.2000000   0.3000000), wk =   0.0960000
        k(   29) = (   0.1000000   0.2000000   0.4000000), wk =   0.0960000
        k(   30) = (   0.1000000   0.2000000  -0.5000000), wk =   0.0480000
        k(   31) = (   0.1000000   0.3000000   0.3000000), wk =   0.0480000
        k(   32) = (   0.1000000   0.3000000   0.4000000), wk =   0.0960000
        k(   33) = (   0.1000000   0.3000000  -0.5000000), wk =   0.0480000
        k(   34) = (   0.1000000   0.4000000   0.4000000), wk =   0.0480000
        k(   35) = (   0.1000000   0.4000000  -0.5000000), wk =   0.0480000
        k(   36) = (   0.1000000  -0.5000000  -0.5000000), wk =   0.0120000
        k(   37) = (   0.2000000   0.2000000   0.2000000), wk =   0.0160000
        k(   38) = (   0.2000000   0.2000000   0.3000000), wk =   0.0480000
        k(   39) = (   0.2000000   0.2000000   0.4000000), wk =   0.0480000
        k(   40) = (   0.2000000   0.2000000  -0.5000000), wk =   0.0240000
        k(   41) = (   0.2000000   0.3000000   0.3000000), wk =   0.0480000
        k(   42) = (   0.2000000   0.3000000   0.4000000), wk =   0.0960000
        k(   43) = (   0.2000000   0.3000000  -0.5000000), wk =   0.0480000
        k(   44) = (   0.2000000   0.4000000   0.4000000), wk =   0.0480000
        k(   45) = (   0.2000000   0.4000000  -0.5000000), wk =   0.0480000
        k(   46) = (   0.2000000  -0.5000000  -0.5000000), wk =   0.0120000
        k(   47) = (   0.3000000   0.3000000   0.3000000), wk =   0.0160000
        k(   48) = (   0.3000000   0.3000000   0.4000000), wk =   0.0480000
        k(   49) = (   0.3000000   0.3000000  -0.5000000), wk =   0.0240000
        k(   50) = (   0.3000000   0.4000000   0.4000000), wk =   0.0480000
        k(   51) = (   0.3000000   0.4000000  -0.5000000), wk =   0.0480000
        k(   52) = (   0.3000000  -0.5000000  -0.5000000), wk =   0.0120000
        k(   53) = (   0.4000000   0.4000000   0.4000000), wk =   0.0160000
        k(   54) = (   0.4000000   0.4000000  -0.5000000), wk =   0.0240000
        k(   55) = (   0.4000000  -0.5000000  -0.5000000), wk =   0.0120000
        k(   56) = (  -0.5000000  -0.5000000  -0.5000000), wk =   0.0020000

                       cryst. coord.
        k(    1) = (   0.0000000   0.0000000   0.0000000), wk =   0.0020000
        k(    2) = (   0.0000000   0.0000000   0.1000000), wk =   0.0120000
        k(    3) = (   0.0000000   0.0000000   0.2000000), wk =   0.0120000
        k(    4) = (   0.0000000   0.0000000   0.3000000), wk =   0.0120000
        k(    5) = (   0.0000000   0.0000000   0.4000000), wk =   0.0120000
        k(    6) = (   0.0000000   0.0000000  -0.5000000), wk =   0.0060000
        k(    7) = (   0.0000000   0.1000000   0.1000000), wk =   0.0240000
        k(    8) = (   0.0000000   0.1000000   0.2000000), wk =   0.0480000
        k(    9) = (   0.0000000   0.1000000   0.3000000), wk =   0.0480000
        k(   10) = (   0.0000000   0.1000000   0.4000000), wk =   0.0480000
        k(   11) = (   0.0000000   0.1000000  -0.5000000), wk =   0.0240000
        k(   12) = (   0.0000000   0.2000000   0.2000000), wk =   0.0240000
        k(   13) = (   0.0000000   0.2000000   0.3000000), wk =   0.0480000
        k(   14) = (   0.0000000   0.2000000   0.4000000), wk =   0.0480000
        k(   15) = (   0.0000000   0.2000000  -0.5000000), wk =   0.0240000
        k(   16) = (   0.0000000   0.3000000   0.3000000), wk =   0.0240000
        k(   17) = (   0.0000000   0.3000000   0.4000000), wk =   0.0480000
        k(   18) = (   0.0000000   0.3000000  -0.5000000), wk =   0.0240000
        k(   19) = (   0.0000000   0.4000000   0.4000000), wk =   0.0240000
        k(   20) = (   0.0000000   0.4000000  -0.5000000), wk =   0.0240000
        k(   21) = (   0.0000000  -0.5000000  -0.5000000), wk =   0.0060000
        k(   22) = (   0.1000000   0.1000000   0.1000000), wk =   0.0160000
        k(   23) = (   0.1000000   0.1000000   0.2000000), wk =   0.0480000
        k(   24) = (   0.1000000   0.1000000   0.3000000), wk =   0.0480000
        k(   25) = (   0.1000000   0.1000000   0.4000000), wk =   0.0480000
        k(   26) = (   0.1000000   0.1000000  -0.5000000), wk =   0.0240000
        k(   27) = (   0.1000000   0.2000000   0.2000000), wk =   0.0480000
        k(   28) = (   0.1000000   0.2000000   0.3000000), wk =   0.0960000
        k(   29) = (   0.1000000   0.2000000   0.4000000), wk =   0.0960000
        k(   30) = (   0.1000000   0.2000000  -0.5000000), wk =   0.0480000
        k(   31) = (   0.1000000   0.3000000   0.3000000), wk =   0.0480000
        k(   32) = (   0.1000000   0.3000000   0.4000000), wk =   0.0960000
        k(   33) = (   0.1000000   0.3000000  -0.5000000), wk =   0.0480000
        k(   34) = (   0.1000000   0.4000000   0.4000000), wk =   0.0480000
        k(   35) = (   0.1000000   0.4000000  -0.5000000), wk =   0.0480000
        k(   36) = (   0.1000000  -0.5000000  -0.5000000), wk =   0.0120000
        k(   37) = (   0.2000000   0.2000000   0.2000000), wk =   0.0160000
        k(   38) = (   0.2000000   0.2000000   0.3000000), wk =   0.0480000
        k(   39) = (   0.2000000   0.2000000   0.4000000), wk =   0.0480000
        k(   40) = (   0.2000000   0.2000000  -0.5000000), wk =   0.0240000
        k(   41) = (   0.2000000   0.3000000   0.3000000), wk =   0.0480000
        k(   42) = (   0.2000000   0.3000000   0.4000000), wk =   0.0960000
        k(   43) = (   0.2000000   0.3000000  -0.5000000), wk =   0.0480000
        k(   44) = (   0.2000000   0.4000000   0.4000000), wk =   0.0480000
        k(   45) = (   0.2000000   0.4000000  -0.5000000), wk =   0.0480000
        k(   46) = (   0.2000000  -0.5000000  -0.5000000), wk =   0.0120000
        k(   47) = (   0.3000000   0.3000000   0.3000000), wk =   0.0160000
        k(   48) = (   0.3000000   0.3000000   0.4000000), wk =   0.0480000
        k(   49) = (   0.3000000   0.3000000  -0.5000000), wk =   0.0240000
        k(   50) = (   0.3000000   0.4000000   0.4000000), wk =   0.0480000
        k(   51) = (   0.3000000   0.4000000  -0.5000000), wk =   0.0480000
        k(   52) = (   0.3000000  -0.5000000  -0.5000000), wk =   0.0120000
        k(   53) = (   0.4000000   0.4000000   0.4000000), wk =   0.0160000
        k(   54) = (   0.4000000   0.4000000  -0.5000000), wk =   0.0240000
        k(   55) = (   0.4000000  -0.5000000  -0.5000000), wk =   0.0120000
        k(   56) = (  -0.5000000  -0.5000000  -0.5000000), wk =   0.0020000

     Dense  grid:    17845 G-vectors     FFT dimensions: (  36,  36,  36)

     Smooth grid:     6355 G-vectors     FFT dimensions: (  24,  24,  24)

     Dynamical RAM for                 wfc:       0.20 MB

     Dynamical RAM for     wfc (w. buffer):      11.62 MB

     Dynamical RAM for           str. fact:       0.54 MB

     Dynamical RAM for           local pot:       0.00 MB

     Dynamical RAM for          nlocal pot:       0.31 MB

     Dynamical RAM for                qrad:       3.21 MB

     Dynamical RAM for          rho,v,vnew:       1.88 MB

     Dynamical RAM for               rhoin:       0.63 MB

     Dynamical RAM for            rho*nmix:       4.36 MB

     Dynamical RAM for           G-vectors:       1.07 MB

     Dynamical RAM for          h,s,v(r/c):       0.05 MB

     Dynamical RAM for          <psi|beta>:       0.01 MB

     Dynamical RAM for                 psi:       0.41 MB

     Dynamical RAM for                hpsi:       0.41 MB

     Dynamical RAM for                spsi:       0.41 MB

     Dynamical RAM for      wfcinit/wfcrot:       0.41 MB

     Dynamical RAM for           addusdens:      50.92 MB

     Dynamical RAM for          addusforce:      51.06 MB

     Dynamical RAM for         addusstress:      54.73 MB

     Estimated static dynamical RAM per process >      21.87 MB

     Estimated max dynamical RAM per process >      80.96 MB

     Check: negative core charge=   -0.000003

     Initial potential from superposition of free atoms

     starting charge      25.9999, renormalised to      26.0000
     Starting wfcs are   17 randomized atomic wfcs
     Checking if some PAW data can be deallocated... 

     total cpu time spent up to now is        3.9 secs

     Self-consistent Calculation

     iteration #  1     ecut=    50.00 Ry     beta= 0.40
     Davidson diagonalization with overlap

---- Real-time Memory Report at c_bands before calling an iterative solver
            94 MiB given to the printing process from OS
             0 MiB allocation reported by mallinfo(arena+hblkhd)
          3872 MiB available memory on the node where the printing process lives
------------------
     ethr =  1.00E-02,  avg # of iterations =  2.8

     total cpu time spent up to now is       29.4 secs

     WARNING: integrated charge=    26.00001288, expected=    26.00000000

     total energy              =    -503.03988921 Ry
     estimated scf accuracy    <       0.46842902 Ry

     iteration #  2     ecut=    50.00 Ry     beta= 0.40
     Davidson diagonalization with overlap

---- Real-time Memory Report at c_bands before calling an iterative solver
           117 MiB given to the printing process from OS
             0 MiB allocation reported by mallinfo(arena+hblkhd)
          4073 MiB available memory on the node where the printing process lives
------------------
     ethr =  1.80E-03,  avg # of iterations =  2.4
     Minimization algorithm failed to find Fermi energy: reverting to bisection
     Possible cause: smearing is larger than the electronic band-gap.

     total cpu time spent up to now is       57.0 secs

     WARNING: integrated charge=    26.00000911, expected=    26.00000000

     total energy              =    -503.16703067 Ry
     estimated scf accuracy    <       0.07939721 Ry

     iteration #  3     ecut=    50.00 Ry     beta= 0.40
     Davidson diagonalization with overlap

---- Real-time Memory Report at c_bands before calling an iterative solver
           118 MiB given to the printing process from OS
             0 MiB allocation reported by mallinfo(arena+hblkhd)
          3982 MiB available memory on the node where the printing process lives
------------------
     ethr =  3.05E-04,  avg # of iterations =  2.1

     total cpu time spent up to now is       63.9 secs

     WARNING: integrated charge=    26.00459128, expected=    26.00000000

     total energy              =    -503.17163089 Ry
     estimated scf accuracy    <       0.00502454 Ry

     iteration #  4     ecut=    50.00 Ry     beta= 0.40
     Davidson diagonalization with overlap

---- Real-time Memory Report at c_bands before calling an iterative solver
           118 MiB given to the printing process from OS
             0 MiB allocation reported by mallinfo(arena+hblkhd)
          3920 MiB available memory on the node where the printing process lives
------------------
     ethr =  1.93E-05,  avg # of iterations =  1.9

     total cpu time spent up to now is       71.3 secs

     WARNING: integrated charge=    26.00841694, expected=    26.00000000

     total energy              =    -503.17033850 Ry
     estimated scf accuracy    <       0.00066678 Ry

     iteration #  5     ecut=    50.00 Ry     beta= 0.40
     Davidson diagonalization with overlap

---- Real-time Memory Report at c_bands before calling an iterative solver
           118 MiB given to the printing process from OS
             0 MiB allocation reported by mallinfo(arena+hblkhd)
          3922 MiB available memory on the node where the printing process lives
------------------
     ethr =  2.56E-06,  avg # of iterations =  2.2
     Minimization algorithm failed to find Fermi energy: reverting to bisection
     Possible cause: smearing is larger than the electronic band-gap.

     total cpu time spent up to now is       89.1 secs

     WARNING: integrated charge=    26.00170023, expected=    26.00000000

     total energy              =    -503.17898355 Ry
     estimated scf accuracy    <       0.00003036 Ry

     iteration #  6     ecut=    50.00 Ry     beta= 0.40
     Davidson diagonalization with overlap

---- Real-time Memory Report at c_bands before calling an iterative solver
           118 MiB given to the printing process from OS
             0 MiB allocation reported by mallinfo(arena+hblkhd)
          3828 MiB available memory on the node where the printing process lives
------------------
     ethr =  1.17E-07,  avg # of iterations =  2.0

     total cpu time spent up to now is      103.1 secs

     WARNING: integrated charge=    26.00289394, expected=    26.00000000

     total energy              =    -503.17035874 Ry
     estimated scf accuracy    <       0.00009181 Ry

     iteration #  7     ecut=    50.00 Ry     beta= 0.40
     Davidson diagonalization with overlap

---- Real-time Memory Report at c_bands before calling an iterative solver
           119 MiB given to the printing process from OS
             0 MiB allocation reported by mallinfo(arena+hblkhd)
          3733 MiB available memory on the node where the printing process lives
------------------
     ethr =  1.17E-07,  avg # of iterations =  2.0
     Minimization algorithm failed to find Fermi energy: reverting to bisection
     Possible cause: smearing is larger than the electronic band-gap.

     total cpu time spent up to now is      122.3 secs

     WARNING: integrated charge=    26.00128411, expected=    26.00000000

     total energy              =    -503.17899916 Ry
     estimated scf accuracy    <       0.00000150 Ry

     iteration #  8     ecut=    50.00 Ry     beta= 0.40
     Davidson diagonalization with overlap

---- Real-time Memory Report at c_bands before calling an iterative solver
           119 MiB given to the printing process from OS
             0 MiB allocation reported by mallinfo(arena+hblkhd)
          4061 MiB available memory on the node where the printing process lives
------------------
     ethr =  5.77E-09,  avg # of iterations =  2.0

     total cpu time spent up to now is      127.2 secs

     WARNING: integrated charge=    26.00059493, expected=    26.00000000

     total energy              =    -503.17899940 Ry
     estimated scf accuracy    <       0.00000020 Ry

     iteration #  9     ecut=    50.00 Ry     beta= 0.40
     Davidson diagonalization with overlap

---- Real-time Memory Report at c_bands before calling an iterative solver
           119 MiB given to the printing process from OS
             0 MiB allocation reported by mallinfo(arena+hblkhd)
          4063 MiB available memory on the node where the printing process lives
------------------
     ethr =  7.87E-10,  avg # of iterations =  2.0
     Minimization algorithm failed to find Fermi energy: reverting to bisection
     Possible cause: smearing is larger than the electronic band-gap.

     total cpu time spent up to now is      131.9 secs

     WARNING: integrated charge=    25.99988324, expected=    26.00000000

     total energy              =    -503.17899946 Ry
     estimated scf accuracy    <       0.00000003 Ry

     iteration # 10     ecut=    50.00 Ry     beta= 0.40
     Davidson diagonalization with overlap

---- Real-time Memory Report at c_bands before calling an iterative solver
           119 MiB given to the printing process from OS
             0 MiB allocation reported by mallinfo(arena+hblkhd)
          4062 MiB available memory on the node where the printing process lives
------------------
     ethr =  9.81E-11,  avg # of iterations =  2.0
     Minimization algorithm failed to find Fermi energy: reverting to bisection
     Possible cause: smearing is larger than the electronic band-gap.

     total cpu time spent up to now is      150.7 secs

     End of self-consistent calculation

          k = 0.0000 0.0000 0.0000 (   751 PWs)   bands (ev):

  -112.3497 -66.5307 -66.5307 -66.5307  -6.0169   5.9436   5.9436   7.0087
     7.0087   7.0087  11.2231  11.2231  11.2231  11.5403  26.4798  26.4798
    29.7167

     occupation numbers 
     1.0000   1.0000   1.0000   1.0000   1.0000   1.0000   1.0000   1.0000
     1.0000   1.0000   1.0000   1.0000   1.0000   1.0000   0.0000   0.0000
     0.0000

          k = 0.0000 0.0000 0.1000 (   767 PWs)   bands (ev):

  -112.3496 -66.5325 -66.5307 -66.5307  -5.9186   5.9561   5.9606   6.9441
     6.9441   7.0118   9.8765  11.3396  11.3396  12.8111  25.5695  26.6244
    29.5862

     occupation numbers 
     1.0000   1.0000   1.0000   1.0000   1.0000   1.0000   1.0000   1.0000
     1.0000   1.0000   1.0000   1.0000   1.0000   0.0009   0.0000   0.0000
     0.0000

          k = 0.0000 0.0000 0.2000 (   779 PWs)   bands (ev):

  -112.3493 -66.5369 -66.5305 -66.5305  -5.6461   5.8895   5.9890   6.7869
     6.7869   7.0202   8.5817  11.6381  11.6381  14.0834  23.8119  27.0615
    29.2012

     occupation numbers 
     1.0000   1.0000   1.0000   1.0000   1.0000   1.0000   1.0000   1.0000
     1.0000   1.0000   1.0000   1.0000   1.0000   0.0000   0.0000   0.0000
     0.0000

          k = 0.0000 0.0000 0.3000 (   792 PWs)   bands (ev):

  -112.3490 -66.5423 -66.5302 -66.5302  -5.2722   5.4179   6.0299   6.6114
     6.6114   7.0306   7.9302  11.9999  11.9999  15.2824  21.8675  27.7927
    28.6528

     occupation numbers 
     1.0000   1.0000   1.0000   1.0000   1.0000   1.0000   1.0000   1.0000
     1.0000   1.0000   1.0000   1.0231   1.0231   0.0000   0.0000   0.0000
     0.0000

          k = 0.0000 0.0000 0.4000 (   800 PWs)   bands (ev):

  -112.3487 -66.5467 -66.5300 -66.5300  -4.9304   4.7426   6.0631   6.4812
     6.4812   7.0390   7.8492  12.2914  12.2914  16.5101  20.0175  28.1646
    28.1647

     occupation numbers 
     1.0000   1.0000   1.0000   1.0000   1.0000   1.0000   1.0000   1.0000
     1.0000   1.0000   1.0000   0.9383   0.9383   0.0000   0.0000   0.0000
     0.0000

          k = 0.0000 0.0000-0.5000 (   804 PWs)   bands (ev):

  -112.3486 -66.5484 -66.5299 -66.5299  -4.7878   4.4453   6.0758   6.4338
     6.4338   7.0422   7.8748  12.4032  12.4032  17.4488  18.8399  27.9700
    27.9700

     occupation numbers 
     1.0000   1.0000   1.0000   1.0000   1.0000   1.0000   1.0000   1.0000
     1.0000   1.0000   1.0000   0.5615   0.5615   0.0000   0.0000   0.0000
     0.0000

          k = 0.0000 0.1000 0.1000 (   772 PWs)   bands (ev):

  -112.3495 -66.5325 -66.5323 -66.5306  -5.8228   5.9669   5.9898   6.8705
     6.9191   6.9830   9.5688  10.9153  11.4428  13.5794  25.4590  25.9675
    29.5014

     occupation numbers 
     1.0000   1.0000   1.0000   1.0000   1.0000   1.0000   1.0000   1.0000
     1.0000   1.0000   1.0000   1.0000   1.0000   0.0000   0.0000   0.0000
     0.0000

          k = 0.0000 0.1000 0.2000 (   780 PWs)   bands (ev):

  -112.3492 -66.5369 -66.5321 -66.5303  -5.5574   5.9251   6.0234   6.7099
     6.7887   6.9820   8.6295  10.9689  11.7081  14.7043  23.8726  25.9866
    29.2311

     occupation numbers 
     1.0000   1.0000   1.0000   1.0000   1.0000   1.0000   1.0000   1.0000
     1.0000   1.0000   1.0000   1.0000   1.0000   0.0000   0.0000   0.0000
     0.0000

          k = 0.0000 0.1000 0.3000 (   785 PWs)   bands (ev):

  -112.3489 -66.5422 -66.5317 -66.5300  -5.1947   5.5056   6.0633   6.5811
     6.6277   6.9956   7.9840  11.3153  12.0307  15.7959  21.8773  26.2601
    28.8085

     occupation numbers 
     1.0000   1.0000   1.0000   1.0000   1.0000   1.0000   1.0000   1.0000
     1.0000   1.0000   1.0000   1.0000   1.0341   0.0000   0.0000   0.0000
     0.0000

          k = 0.0000 0.1000 0.4000 (   795 PWs)   bands (ev):

  -112.3486 -66.5466 -66.5315 -66.5298  -4.8644   4.8842   6.1023   6.4755
     6.5062   7.0077   7.8618  11.6413  12.2905  16.9369  19.9846  26.4654
    28.4067

     occupation numbers 
     1.0000   1.0000   1.0000   1.0000   1.0000   1.0000   1.0000   1.0000
     1.0000   1.0000   1.0000   1.0000   0.9405   0.0000   0.0000   0.0000
     0.0000

          k = 0.0000 0.1000-0.5000 (   796 PWs)   bands (ev):

  -112.3485 -66.5483 -66.5314 -66.5297  -4.7273   4.6064   6.1193   6.4290
     6.4616   7.0124   7.8764  11.7741  12.3900  18.0498  18.5811  26.5281
    28.2418

     occupation numbers 
     1.0000   1.0000   1.0000   1.0000   1.0000   1.0000   1.0000   1.0000
     1.0000   1.0000   1.0000   1.0003   0.6110   0.0000   0.0000   0.0000
     0.0000

          k = 0.0000 0.2000 0.2000 (   782 PWs)   bands (ev):

  -112.3489 -66.5367 -66.5363 -66.5300  -5.3132   5.9121   6.1373   6.5630
     6.7644   6.9158   8.5482  10.1328  11.8892  15.6915  23.8104  24.1859
    29.2711

     occupation numbers 
     1.0000   1.0000   1.0000   1.0000   1.0000   1.0000   1.0000   1.0000
     1.0000   1.0000   1.0000   1.0000   1.0036   0.0000   0.0000   0.0000
     0.0000

          k = 0.0000 0.2000 0.3000 (   790 PWs)   bands (ev):

  -112.3486 -66.5419 -66.5361 -66.5298  -4.9825   5.6790   6.1915   6.5202
     6.6673   6.9096   8.1110  10.0745  12.1098  16.5686  21.8505  24.3093
    29.2280

     occupation numbers 
     1.0000   1.0000   1.0000   1.0000   1.0000   1.0000   1.0000   1.0000
     1.0000   1.0000   1.0000   1.0000   1.0697   0.0000   0.0000   0.0000
     0.0000

          k = 0.0000 0.2000 0.4000 (   784 PWs)   bands (ev):

  -112.3483 -66.5461 -66.5357 -66.5295  -4.6852   5.2635   6.2236   6.4738
     6.5724   6.9268   7.8945  10.3388  12.2870  17.3247  20.1503  24.5200
    29.1071

     occupation numbers 
     1.0000   1.0000   1.0000   1.0000   1.0000   1.0000   1.0000   1.0000
     1.0000   1.0000   1.0000   1.0000   0.9492   0.0000   0.0000   0.0000
     0.0000

          k = 0.0000 0.2000-0.5000 (   794 PWs)   bands (ev):

  -112.3482 -66.5479 -66.5356 -66.5294  -4.5630   5.0575   6.2444   6.4304
     6.5358   6.9349   7.8762  10.4766  12.3546  17.7965  19.3108  24.6116
    29.0401

     occupation numbers 
     1.0000   1.0000   1.0000   1.0000   1.0000   1.0000   1.0000   1.0000
     1.0000   1.0000   1.0000   1.0000   0.7421   0.0000   0.0000   0.0000
     0.0000

          k = 0.0000 0.3000 0.3000 (   780 PWs)   bands (ev):

  -112.3482 -66.5414 -66.5412 -66.5294  -4.6989   5.7491   6.4071   6.4877
     6.6919   6.8324   8.1481   9.1628  12.2049  16.9344  21.4684  23.2387
    29.7604

     occupation numbers 
     1.0000   1.0000   1.0000   1.0000   1.0000   1.0000   1.0000   1.0000
     1.0000   1.0000   1.0000   1.0000   1.0717   0.0000   0.0000   0.0000
     0.0000

          k = 0.0000 0.3000 0.4000 (   785 PWs)   bands (ev):

  -112.3480 -66.5456 -66.5410 -66.5291  -4.4486   5.7071   6.4582   6.5179
     6.6549   6.8303   7.9280   9.0657  12.2801  16.7899  20.8823  23.2098
    29.8380

     occupation numbers 
     1.0000   1.0000   1.0000   1.0000   1.0000   1.0000   1.0000   1.0000
     1.0000   1.0000   1.0000   1.0000   0.9652   0.0000   0.0000   0.0000
     0.0000

          k = 0.0000 0.3000-0.5000 (   792 PWs)   bands (ev):

  -112.3479 -66.5474 -66.5410 -66.5290  -4.3472   5.6661   6.4644   6.4810
     6.6300   6.8411   7.8548   9.1532  12.3085  16.6141  20.6858  23.3111
    29.5044

     occupation numbers 
     1.0000   1.0000   1.0000   1.0000   1.0000   1.0000   1.0000   1.0000
     1.0000   1.0000   1.0000   1.0000   0.8922   0.0000   0.0000   0.0000
     0.0000

          k = 0.0000 0.4000 0.4000 (   796 PWs)   bands (ev):

  -112.3477 -66.5455 -66.5453 -66.5288  -4.2429   5.9930   6.5641   6.7126
     6.7646   6.8197   7.8834   8.2404  12.2726  15.9004  21.6689  22.6319
    29.0014

     occupation numbers 
     1.0000   1.0000   1.0000   1.0000   1.0000   1.0000   1.0000   1.0000
     1.0000   1.0000   1.0000   1.0000   0.9816   0.0000   0.0000   0.0000
     0.0000

          k = 0.0000 0.4000-0.5000 (   784 PWs)   bands (ev):

  -112.3476 -66.5469 -66.5452 -66.5286  -4.1604   6.0999   6.6335   6.7082
     6.7667   6.8888   7.7658   8.1034  12.2692  15.4855  21.8811  22.6280
    28.5571

     occupation numbers 
     1.0000   1.0000   1.0000   1.0000   1.0000   1.0000   1.0000   1.0000
     1.0000   1.0000   1.0000   1.0000   0.9885   0.0000   0.0000   0.0000
     0.0000

          k = 0.0000-0.5000-0.5000 (   784 PWs)   bands (ev):

  -112.3475 -66.5468 -66.5468 -66.5285  -4.0858   6.2125   6.7386   6.7386
     6.7992   7.2622   7.6150   7.6150  12.2537  15.0073  22.4186  22.4186
    28.0404

     occupation numbers 
     1.0000   1.0000   1.0000   1.0000   1.0000   1.0000   1.0000   1.0000
     1.0000   1.0000   1.0000   1.0000   1.0169   0.0000   0.0000   0.0000
     0.0000

          k = 0.1000 0.1000 0.1000 (   772 PWs)   bands (ev):

  -112.3494 -66.5325 -66.5322 -66.5322  -5.7292   6.0032   6.0032   6.8222
     6.9131   6.9131   9.3575  11.0416  11.0416  14.1817  25.5067  25.5067
    28.1755

     occupation numbers 
     1.0000   1.0000   1.0000   1.0000   1.0000   1.0000   1.0000   1.0000
     1.0000   1.0000   1.0000   1.0000   1.0000   0.0000   0.0000   0.0000
     0.0000

          k = 0.1000 0.1000 0.2000 (   789 PWs)   bands (ev):

  -112.3491 -66.5368 -66.5321 -66.5320  -5.4706   5.9864   6.0394   6.7021
     6.7431   6.9277   8.6348  10.8740  11.3651  15.1768  23.9321  25.6158
    27.8907

     occupation numbers 
     1.0000   1.0000   1.0000   1.0000   1.0000   1.0000   1.0000   1.0000
     1.0000   1.0000   1.0000   1.0000   1.0000   0.0000   0.0000   0.0000
     0.0000

          k = 0.1000 0.1000 0.3000 (   792 PWs)   bands (ev):

  -112.3488 -66.5421 -66.5317 -66.5317  -5.1180   5.6006   6.0880   6.5513
     6.6461   6.9507   8.0279  11.0775  11.7584  16.1592  21.9359  25.6921
    28.0511

     occupation numbers 
     1.0000   1.0000   1.0000   1.0000   1.0000   1.0000   1.0000   1.0000
     1.0000   1.0000   1.0000   1.0000   1.0002   0.0000   0.0000   0.0000
     0.0000

          k = 0.1000 0.1000 0.4000 (   789 PWs)   bands (ev):

  -112.3485 -66.5464 -66.5314 -66.5313  -4.7984   5.0210   6.1367   6.4004
     6.5962   6.9704   7.8848  11.3264  12.0776  17.1981  20.0484  25.6643
    28.2014

     occupation numbers 
     1.0000   1.0000   1.0000   1.0000   1.0000   1.0000   1.0000   1.0000
     1.0000   1.0000   1.0000   1.0000   1.0551   0.0000   0.0000   0.0000
     0.0000

          k = 0.1000 0.1000-0.5000 (   800 PWs)   bands (ev):

  -112.3484 -66.5481 -66.5314 -66.5313  -4.6661   4.7591   6.1632   6.3375
     6.5669   6.9779   7.8929  11.4343  12.2009  18.3901  18.5281  25.6227
    28.2513

     occupation numbers 
     1.0000   1.0000   1.0000   1.0000   1.0000   1.0000   1.0000   1.0000
     1.0000   1.0000   1.0000   1.0000   1.0741   0.0000   0.0000   0.0000
     0.0000

          k = 0.1000 0.2000 0.2000 (   787 PWs)   bands (ev):

  -112.3488 -66.5366 -66.5362 -66.5318  -5.2315   6.0003   6.1432   6.5896
     6.7248   6.8372   8.4868  10.2913  11.4561  15.9909  23.9715  24.0907
    27.6150

     occupation numbers 
     1.0000   1.0000   1.0000   1.0000   1.0000   1.0000   1.0000   1.0000
     1.0000   1.0000   1.0000   1.0000   1.0000   0.0000   0.0000   0.0000
     0.0000

          k = 0.1000 0.2000 0.3000 (   789 PWs)   bands (ev):

  -112.3485 -66.5417 -66.5360 -66.5314  -4.9084   5.7866   6.1862   6.4965
     6.6954   6.8493   8.1061  10.1438  11.7511  16.7272  22.0150  24.0951
    28.0215

     occupation numbers 
     1.0000   1.0000   1.0000   1.0000   1.0000   1.0000   1.0000   1.0000
     1.0000   1.0000   1.0000   1.0000   1.0001   0.0000   0.0000   0.0000
     0.0000

          k = 0.1000 0.2000 0.4000 (   780 PWs)   bands (ev):

  -112.3482 -66.5460 -66.5355 -66.5310  -4.6188   5.3802   6.2204   6.3653
     6.7004   6.8835   7.9394  10.2884  12.0090  17.3710  20.3503  24.0333
    28.4994

     occupation numbers 
     1.0000   1.0000   1.0000   1.0000   1.0000   1.0000   1.0000   1.0000
     1.0000   1.0000   1.0000   1.0000   1.0261   0.0000   0.0000   0.0000
     0.0000

          k = 0.1000 0.2000-0.5000 (   784 PWs)   bands (ev):

  -112.3481 -66.5477 -66.5354 -66.5309  -4.5000   5.1789   6.2599   6.2871
     6.6863   6.8976   7.9360  10.3778  12.1115  17.7591  19.5687  23.9826
    28.7243

     occupation numbers 
     1.0000   1.0000   1.0000   1.0000   1.0000   1.0000   1.0000   1.0000
     1.0000   1.0000   1.0000   1.0000   1.0704   0.0000   0.0000   0.0000
     0.0000

          k = 0.1000 0.3000 0.3000 (   778 PWs)   bands (ev):

  -112.3481 -66.5412 -66.5411 -66.5310  -4.6284   5.8374   6.3357   6.4679
     6.7503   6.7977   8.0830   9.3771  11.8970  16.9839  21.6443  22.9870
    28.5160

     occupation numbers 
     1.0000   1.0000   1.0000   1.0000   1.0000   1.0000   1.0000   1.0000
     1.0000   1.0000   1.0000   1.0000   1.0042   0.0000   0.0000   0.0000
     0.0000

          k = 0.1000 0.3000 0.4000 (   785 PWs)   bands (ev):

  -112.3479 -66.5455 -66.5409 -66.5307  -4.3815   5.7718   6.3064   6.4431
     6.7831   6.8422   7.9922   9.1975  12.0360  16.8510  20.9350  22.8108
    29.1488

     occupation numbers 
     1.0000   1.0000   1.0000   1.0000   1.0000   1.0000   1.0000   1.0000
     1.0000   1.0000   1.0000   1.0000   1.0363   0.0000   0.0000   0.0000
     0.0000

          k = 0.1000 0.3000-0.5000 (   798 PWs)   bands (ev):

  -112.3478 -66.5473 -66.5409 -66.5307  -4.2814   5.7214   6.2379   6.4509
     6.7724   6.8615   7.9934   9.2205  12.0936  16.6996  20.6947  22.7889
    29.6104

     occupation numbers 
     1.0000   1.0000   1.0000   1.0000   1.0000   1.0000   1.0000   1.0000
     1.0000   1.0000   1.0000   1.0000   1.0625   0.0000   0.0000   0.0000
     0.0000

          k = 0.1000 0.4000 0.4000 (   790 PWs)   bands (ev):

  -112.3476 -66.5453 -66.5451 -66.5304  -4.1749   6.0022   6.4084   6.4222
     6.7964   7.0025   8.0188   8.5410  12.0713  16.0149  21.4654  22.2637
    29.2078

     occupation numbers 
     1.0000   1.0000   1.0000   1.0000   1.0000   1.0000   1.0000   1.0000
     1.0000   1.0000   1.0000   1.0000   1.0521   0.0000   0.0000   0.0000
     0.0000

          k = 0.1000 0.4000-0.5000 (   784 PWs)   bands (ev):

  -112.3475 -66.5468 -66.5450 -66.5303  -4.0920   6.1314   6.3043   6.4764
     6.7623   7.0802   8.0541   8.3825  12.0872  15.6138  21.6213  22.1856
    28.9315

     occupation numbers 
     1.0000   1.0000   1.0000   1.0000   1.0000   1.0000   1.0000   1.0000
     1.0000   1.0000   1.0000   1.0000   1.0596   0.0000   0.0000   0.0000
     0.0000

          k = 0.1000-0.5000-0.5000 (   792 PWs)   bands (ev):

  -112.3474 -66.5467 -66.5467 -66.5303  -4.0163   6.3105   6.3981   6.3981
     6.6807   7.2638   8.0885   8.0885  12.0851  15.1393  22.0086  22.0086
    28.4983

     occupation numbers 
     1.0000   1.0000   1.0000   1.0000   1.0000   1.0000   1.0000   1.0000
     1.0000   1.0000   1.0000   1.0000   1.0586   0.0000   0.0000   0.0000
     0.0000

          k = 0.2000 0.2000 0.2000 (   796 PWs)   bands (ev):

  -112.3486 -66.5363 -66.5360 -66.5360  -5.0073   6.1528   6.1528   6.6618
     6.6618   6.6618   8.2787  10.6942  10.6942  16.5189  23.7883  23.7883
    26.2515

     occupation numbers 
     1.0000   1.0000   1.0000   1.0000   1.0000   1.0000   1.0000   1.0000
     1.0000   1.0000   1.0000   1.0000   1.0000   0.0000   0.0000   0.0000
     0.0000

          k = 0.2000 0.2000 0.3000 (   783 PWs)   bands (ev):

  -112.3482 -66.5413 -66.5357 -66.5356  -4.7059   6.0089   6.1415   6.5027
     6.7318   6.7713   8.0316  10.2074  11.1868  16.9707  22.2446  23.3012
    26.7900

     occupation numbers 
     1.0000   1.0000   1.0000   1.0000   1.0000   1.0000   1.0000   1.0000
     1.0000   1.0000   1.0000   1.0000   1.0000   0.0000   0.0000   0.0000
     0.0000

          k = 0.2000 0.2000 0.4000 (   782 PWs)   bands (ev):

  -112.3479 -66.5456 -66.5353 -66.5352  -4.4378   5.6555   6.0973   6.4284
     6.8012   6.8166   8.0330  10.0268  11.5955  17.3431  20.7432  22.8131
    27.8518

     occupation numbers 
     1.0000   1.0000   1.0000   1.0000   1.0000   1.0000   1.0000   1.0000
     1.0000   1.0000   1.0000   1.0000   1.0000   0.0000   0.0000   0.0000
     0.0000

          k = 0.2000 0.2000-0.5000 (   786 PWs)   bands (ev):

  -112.3478 -66.5473 -66.5353 -66.5351  -4.3285   5.4789   6.0709   6.4132
     6.7958   6.8350   8.1024   9.9885  11.7566  17.5418  20.1045  22.6048
    28.4163

     occupation numbers 
     1.0000   1.0000   1.0000   1.0000   1.0000   1.0000   1.0000   1.0000
     1.0000   1.0000   1.0000   1.0000   1.0002   0.0000   0.0000   0.0000
     0.0000

          k = 0.2000 0.3000 0.3000 (   779 PWs)   bands (ev):

  -112.3478 -66.5409 -66.5408 -66.5352  -4.4359   5.9688   6.1427   6.5348
     6.7647   6.8401   7.9497   9.9079  11.2243  17.0661  21.8121  22.2828
    26.8561

     occupation numbers 
     1.0000   1.0000   1.0000   1.0000   1.0000   1.0000   1.0000   1.0000
     1.0000   1.0000   1.0000   1.0000   1.0000   0.0000   0.0000   0.0000
     0.0000

          k = 0.2000 0.3000 0.4000 (   786 PWs)   bands (ev):

  -112.3476 -66.5452 -66.5405 -66.5349  -4.1982   5.8386   6.0189   6.5361
     6.7924   6.8715   8.1659   9.5750  11.5152  16.9890  20.8927  21.7438
    27.7211

     occupation numbers 
     1.0000   1.0000   1.0000   1.0000   1.0000   1.0000   1.0000   1.0000
     1.0000   1.0000   1.0000   1.0000   1.0000   0.0000   0.0000   0.0000
     0.0000

          k = 0.2000 0.3000-0.5000 (   786 PWs)   bands (ev):

  -112.3475 -66.5468 -66.5404 -66.5348  -4.1019   5.7685   5.9433   6.5460
     6.7384   6.9086   8.3735   9.4183  11.6524  16.9066  20.5776  21.4894
    28.3290

     occupation numbers 
     1.0000   1.0000   1.0000   1.0000   1.0000   1.0000   1.0000   1.0000
     1.0000   1.0000   1.0000   1.0000   1.0000   0.0000   0.0000   0.0000
     0.0000

          k = 0.2000 0.4000 0.4000 (   789 PWs)   bands (ev):

  -112.3473 -66.5449 -66.5448 -66.5346  -3.9889   5.8445   6.0059   6.5362
     6.6363   7.0759   8.4579   9.2344  11.6151  16.3469  20.7771  21.2848
    28.0202

     occupation numbers 
     1.0000   1.0000   1.0000   1.0000   1.0000   1.0000   1.0000   1.0000
     1.0000   1.0000   1.0000   1.0000   1.0000   0.0000   0.0000   0.0000
     0.0000

          k = 0.2000 0.4000-0.5000 (   782 PWs)   bands (ev):

  -112.3472 -66.5464 -66.5446 -66.5345  -3.9048   5.9076   5.9111   6.5079
     6.5694   7.1551   8.7298   9.0403  11.6790  15.9997  20.8516  21.0283
    28.3275

     occupation numbers 
     1.0000   1.0000   1.0000   1.0000   1.0000   1.0000   1.0000   1.0000
     1.0000   1.0000   1.0000   1.0000   1.0000   0.0000   0.0000   0.0000
     0.0000

          k = 0.2000-0.5000-0.5000 (   788 PWs)   bands (ev):

  -112.3471 -66.5463 -66.5463 -66.5343  -3.8257   5.9398   5.9398   6.3456
     6.5716   7.2682   8.9302   8.9302  11.7020  15.5508  20.9347  20.9347
    28.3341

     occupation numbers 
     1.0000   1.0000   1.0000   1.0000   1.0000   1.0000   1.0000   1.0000
     1.0000   1.0000   1.0000   1.0000   1.0000   0.0000   0.0000   0.0000
     0.0000

          k = 0.3000 0.3000 0.3000 (   790 PWs)   bands (ev):

  -112.3475 -66.5407 -66.5404 -66.5404  -4.1797   5.9265   5.9265   6.7630
     6.7630   6.7646   8.0537  10.5568  10.5568  17.0951  21.3290  21.3290
    26.3193

     occupation numbers 
     1.0000   1.0000   1.0000   1.0000   1.0000   1.0000   1.0000   1.0000
     1.0000   1.0000   1.0000   1.0000   1.0000   0.0000   0.0000   0.0000
     0.0000

          k = 0.3000 0.3000 0.4000 (   783 PWs)   bands (ev):

  -112.3472 -66.5447 -66.5402 -66.5400  -3.9546   5.7722   5.7858   6.5417
     6.7711   6.9417   8.5451  10.0055  11.1131  17.0493  20.4876  20.5448
    26.6802

     occupation numbers 
     1.0000   1.0000   1.0000   1.0000   1.0000   1.0000   1.0000   1.0000
     1.0000   1.0000   1.0000   1.0000   1.0000   0.0000   0.0000   0.0000
     0.0000

          k = 0.3000 0.3000-0.5000 (   776 PWs)   bands (ev):

  -112.3471 -66.5463 -66.5400 -66.5398  -3.8636   5.7034   5.7175   6.4459
     6.7752   7.0020   8.9378   9.6644  11.3404  17.0064  20.1465  20.2110
    26.9777

     occupation numbers 
     1.0000   1.0000   1.0000   1.0000   1.0000   1.0000   1.0000   1.0000
     1.0000   1.0000   1.0000   1.0000   1.0000   0.0000   0.0000   0.0000
     0.0000

          k = 0.3000 0.4000 0.4000 (   782 PWs)   bands (ev):

  -112.3469 -66.5444 -66.5443 -66.5398  -3.7410   5.6309   5.6863   6.2129
     6.8654   7.1066   9.1098  10.0566  11.1524  16.8293  19.7422  20.0316
    26.0398

     occupation numbers 
     1.0000   1.0000   1.0000   1.0000   1.0000   1.0000   1.0000   1.0000
     1.0000   1.0000   1.0000   1.0000   1.0000   0.0000   0.0000   0.0000
     0.0000

          k = 0.3000 0.4000-0.5000 (   782 PWs)   bands (ev):

  -112.3468 -66.5460 -66.5442 -66.5396  -3.6549   5.6019   5.6217   6.0705
     6.8812   7.1850   9.5515   9.8140  11.2916  16.6183  19.5890  19.7739
    25.8066

     occupation numbers 
     1.0000   1.0000   1.0000   1.0000   1.0000   1.0000   1.0000   1.0000
     1.0000   1.0000   1.0000   1.0000   1.0000   0.0000   0.0000   0.0000
     0.0000

          k = 0.3000-0.5000-0.5000 (   780 PWs)   bands (ev):

  -112.3467 -66.5458 -66.5458 -66.5395  -3.5707   5.5890   5.5890   5.8821
     6.9018   7.2736   9.8511   9.8511  11.3250  16.2723  19.5780  19.5780
    25.3132

     occupation numbers 
     1.0000   1.0000   1.0000   1.0000   1.0000   1.0000   1.0000   1.0000
     1.0000   1.0000   1.0000   1.0000   1.0000   0.0000   0.0000   0.0000
     0.0000

          k = 0.4000 0.4000 0.4000 (   780 PWs)   bands (ev):

  -112.3466 -66.5440 -66.5439 -66.5439  -3.5227   5.4860   5.4860   5.8194
     7.1218   7.1218   9.8104  10.7777  10.7777  17.2043  18.9478  18.9478
    24.4172

     occupation numbers 
     1.0000   1.0000   1.0000   1.0000   1.0000   1.0000   1.0000   1.0000
     1.0000   1.0000   1.0000   1.0000   1.0000   0.0000   0.0000   0.0000
     0.0000

          k = 0.4000 0.4000-0.5000 (   782 PWs)   bands (ev):

  -112.3465 -66.5456 -66.5438 -66.5438  -3.4344   5.4180   5.4369   5.6553
     7.1267   7.2191  10.3133  10.4498  11.0840  17.2287  18.5033  18.8040
    23.7408

     occupation numbers 
     1.0000   1.0000   1.0000   1.0000   1.0000   1.0000   1.0000   1.0000
     1.0000   1.0000   1.0000   1.0000   1.0000   0.0000   0.0000   0.0000
     0.0000

          k = 0.4000-0.5000-0.5000 (   780 PWs)   bands (ev):

  -112.3464 -66.5454 -66.5454 -66.5437  -3.3450   5.3739   5.3739   5.4686
     7.1744   7.2780  10.6545  10.6545  11.0819  17.2558  18.4026  18.4026
    22.8385

     occupation numbers 
     1.0000   1.0000   1.0000   1.0000   1.0000   1.0000   1.0000   1.0000
     1.0000   1.0000   1.0000   1.0000   1.0000   0.0000   0.0000   0.0000
     0.0000

          k =-0.5000-0.5000-0.5000 (   840 PWs)   bands (ev):

  -112.3464 -66.5458 -66.5458 -66.5458  -3.2535   5.3014   5.3014   5.3014
     7.2794   7.2794  11.0011  11.0011  11.0011  17.9144  17.9144  17.9144
    21.6642

     occupation numbers 
     1.0000   1.0000   1.0000   1.0000   1.0000   1.0000   1.0000   1.0000
     1.0000   1.0000   1.0000   1.0000   1.0000   0.0000   0.0000   0.0000
     0.0000

     the Fermi energy is    12.4475 ev

!    total energy              =    -503.17899947 Ry
     estimated scf accuracy    <          2.2E-09 Ry
     smearing contrib. (-TS)   =       0.00105486 Ry
     internal energy E=F+TS    =    -503.18005433 Ry

     The total energy is F=E-TS. E is the sum of the following terms:
     one-electron contribution =    -353.11346913 Ry
     hartree contribution      =     190.18616501 Ry
     xc contribution           =     -49.69896541 Ry
     ewald contribution        =    -281.02274351 Ry
     one-center paw contrib.   =      -9.53104129 Ry
      -> PAW hartree energy AE =      25.57792441 Ry
      -> PAW hartree energy PS =     -25.46413879 Ry
      -> PAW xc energy AE      =     -16.58987885 Ry
      -> PAW xc energy PS      =       6.94505195 Ry
      -> total E_H with PAW    =     190.29995063 Ry
      -> total E_XC with PAW   =     -59.34379232 Ry

     convergence has been achieved in  10 iterations

     Forces acting on atoms (cartesian axes, Ry/au):

     atom    1 type  2   force =     0.00000000    0.00000000    0.00000000
     atom    2 type  1   force =     0.00000000    0.00000000    0.00000000
     The non-local contrib.  to forces
     atom    1 type  2   force =     0.00000000    0.00000000    0.00000000
     atom    2 type  1   force =     0.00000000    0.00000000    0.00000000
     The ionic contribution  to forces
     atom    1 type  2   force =    -0.00000000   -0.00000000   -0.00000000
     atom    2 type  1   force =     0.00000000    0.00000000    0.00000000
     The local contribution  to forces
     atom    1 type  2   force =     0.00000000   -0.00000000    0.00000000
     atom    2 type  1   force =     0.00000000    0.00000000    0.00000000
     The core correction contribution to forces
     atom    1 type  2   force =     0.00000000    0.00000000    0.00000000
     atom    2 type  1   force =     0.00000000    0.00000000   -0.00000000
     The Hubbard contrib.    to forces
     atom    1 type  2   force =     0.00000000    0.00000000    0.00000000
     atom    2 type  1   force =     0.00000000    0.00000000    0.00000000
     The SCF correction term to forces
     atom    1 type  2   force =     0.00000000   -0.00000000    0.00000000
     atom    2 type  1   force =    -0.00000000    0.00000000    0.00000000

     Total force =     0.000000     Total SCF correction =     0.000000


     Computing stress (Cartesian axis) and pressure

          total   stress  (Ry/bohr**3)                   (kbar)     P=      -10.07
  -0.00006844   0.00000000   0.00000000          -10.07        0.00        0.00
   0.00000000  -0.00006844   0.00000000            0.00      -10.07        0.00
   0.00000000   0.00000000  -0.00006844            0.00        0.00      -10.07

     kinetic stress (kbar)  42451.53      0.00      0.00
                                0.00  42451.53      0.00
                                0.00      0.00  42451.53

     local   stress (kbar)  10046.42      0.00     -0.00
                                0.00  10046.42     -0.00
                               -0.00     -0.00  10046.42

     nonloc. stress (kbar)   -947.07      0.00      0.00
                                0.00   -947.07      0.00
                                0.00      0.00   -947.07

     hartree stress (kbar)  70848.92     -0.00      0.00
                               -0.00  70848.92      0.00
                                0.00      0.00  70848.92

     exc-cor stress (kbar) -17247.34     -0.00     -0.00
                               -0.00 -17247.34      0.00
                               -0.00      0.00 -17247.34

     corecor stress (kbar)   -474.79     -0.00      0.00
                               -0.00   -474.79     -0.00
                                0.00     -0.00   -474.79

     ewald   stress (kbar)-104687.74      0.00     -0.00
                                0.00-104687.74      0.00
                               -0.00      0.00-104687.74

     hubbard stress (kbar)      0.00      0.00      0.00
                                0.00      0.00      0.00
                                0.00      0.00      0.00

     DFT-D   stress (kbar)      0.00      0.00      0.00
                                0.00      0.00      0.00
                                0.00      0.00      0.00

     XDM     stress (kbar)      0.00      0.00      0.00
                                0.00      0.00      0.00
                                0.00      0.00      0.00

     dft-nl  stress (kbar)      0.00      0.00      0.00
                                0.00      0.00      0.00
                                0.00      0.00      0.00

     TS-vdW  stress (kbar)      0.00      0.00      0.00
                                0.00      0.00      0.00
                                0.00      0.00      0.00

     MDB     stress (kbar)      0.00      0.00      0.00
                                0.00      0.00      0.00
                                0.00      0.00      0.00

     3D-RISM stress (kbar)      0.00      0.00      0.00
                                0.00      0.00      0.00
                                0.00      0.00      0.00


     Writing all to output data dir ./temp_cubic/aiida.save/ :
     XML data file, charge density, pseudopotentials, collected wavefunctions

     init_run     :     64.78s CPU      2.97s WALL (       1 calls)
     electrons    :   3425.71s CPU    146.81s WALL (       1 calls)
     forces       :      9.48s CPU      0.42s WALL (       1 calls)
     stress       :     11.78s CPU      0.70s WALL (       1 calls)

     Called by init_run:
     wfcinit      :     58.00s CPU      2.46s WALL (       1 calls)
     wfcinit:atom :      1.33s CPU      0.05s WALL (      56 calls)
     wfcinit:wfcr :     54.71s CPU      2.33s WALL (      56 calls)
     potinit      :      3.27s CPU      0.16s WALL (       1 calls)
     hinit0       :      1.88s CPU      0.26s WALL (       1 calls)

     Called by electrons:
     c_bands      :   2949.19s CPU    125.98s WALL (      10 calls)
     sum_band     :    461.50s CPU     19.96s WALL (      10 calls)
     v_of_rho     :      2.55s CPU      0.13s WALL (      11 calls)
     v_h          :      0.40s CPU      0.03s WALL (      11 calls)
     v_xc         :      2.15s CPU      0.11s WALL (      13 calls)
     newd         :      7.24s CPU      0.52s WALL (      11 calls)
     PAW_pot      :      6.87s CPU      0.29s WALL (      11 calls)
     mix_rho      :      1.01s CPU      0.05s WALL (      10 calls)

     Called by c_bands:
     init_us_2    :     30.37s CPU      1.36s WALL (    1288 calls)
     cegterg      :   2871.63s CPU    122.56s WALL (     560 calls)

     Called by sum_band:
     sum_band:wei :      0.26s CPU      0.01s WALL (      10 calls)
     sum_band:loo :    457.21s CPU     19.41s WALL (      10 calls)
     sum_band:buf :      0.26s CPU      0.02s WALL (     560 calls)
     sum_band:ini :     14.89s CPU      0.55s WALL (     560 calls)
     sum_band:cal :      6.63s CPU      0.31s WALL (     560 calls)
     sum_band:bec :     20.96s CPU      0.96s WALL (     560 calls)
     addusdens    :      3.80s CPU      0.49s WALL (      10 calls)
                                        0.00s GPU  (      10 calls)
     addusd:skk   :      0.23s CPU      0.00s WALL (      20 calls)
                                        0.00s GPU  (      20 calls)

     Called by *egterg:
     cdiaghg      :      9.72s CPU      0.49s WALL (    1761 calls)
     cegterg:over :     24.74s CPU      1.02s WALL (    1201 calls)
     cegterg:upda :     51.54s CPU      2.20s WALL (    1201 calls)
     cegterg:last :     41.44s CPU      1.58s WALL (    1097 calls)
     h_psi        :   2608.76s CPU    111.17s WALL (    1817 calls)
     s_psi        :     19.03s CPU      0.83s WALL (    1817 calls)
     g_psi        :     49.82s CPU      2.20s WALL (    1201 calls)

     Called by h_psi:
     h_psi:calbec :     18.78s CPU      0.78s WALL (    1817 calls)
     vloc_psi     :   2491.14s CPU    106.28s WALL (    1817 calls)
     add_vuspsi   :     21.38s CPU      0.84s WALL (    1817 calls)

     General routines
     calbec       :     27.44s CPU      1.21s WALL (    2657 calls)
     fft          :      2.66s CPU      0.08s WALL (     166 calls)
     ffts         :      0.00s CPU      0.00s WALL (      21 calls)
     fftw         :    113.01s CPU      5.04s WALL (   54432 calls)
     interpolate  :      0.24s CPU      0.01s WALL (      11 calls)

     Parallel routines

     PAW routines
     PAW_pot      :      6.87s CPU      0.29s WALL (      11 calls)
     PAW_symme    :      0.00s CPU      0.00s WALL (      21 calls)

     PWSCF        :  58m47.76s CPU   2m32.61s WALL


   This run was terminated on:  23:59:39   7Jun2024            

=------------------------------------------------------------------------------=
   JOB DONE.
=------------------------------------------------------------------------------=
