
     Program PWSCF v.7.3.1 starts on  8Jun2024 at 13:37:27 

     This program is part of the open-source Quantum ESPRESSO suite
     for quantum simulation of materials; please cite
         "P. Giannozzi et al., J. Phys.:Condens. Matter 21 395502 (2009);
         "P. Giannozzi et al., J. Phys.:Condens. Matter 29 465901 (2017);
         "P. Giannozzi et al., J. Chem. Phys. 152 154105 (2020);
          URL http://www.quantum-espresso.org", 
     in publications or presentations arising from this work. More details at
     http://www.quantum-espresso.org/quote

     Parallel version (MPI & OpenMP), running on      24 processor cores
     Number of MPI processes:                 1
     Threads/MPI process:                    24

     MPI processes distributed on     1 nodes
     6829 MiB available memory on the printing compute node when the environment starts

     Waiting for input...
     Reading input from standard input

     Current dimensions of program PWSCF are:
     Max number of different atomic species (ntypx) = 10
     Max number of k-points (npk) =  40000
     Max angular momentum in pseudopotentials (lmaxx) =  4
     file O.pbe-n-kjpaw_psl.0.1.UPF: wavefunction(s)  2P renormalized
     Message from routine setup:
     using ibrav=0 with symmetry is DISCOURAGED, use correct ibrav instead

     Subspace diagonalization in iterative solution of the eigenvalue problem:
     a serial algorithm will be used


     G-vector sticks info
     --------------------
     sticks:   dense  smooth     PW     G-vecs:    dense   smooth      PW
     Sum         933     465    145                21247     7497    1365

     Using Slab Decomposition



     bravais-lattice index     =            0
     lattice parameter (alat)  =       5.3921  a.u.
     unit-cell volume          =     156.7724 (a.u.)^3
     number of atoms/cell      =            2
     number of atomic types    =            2
     number of electrons       =        26.00
     number of Kohn-Sham states=           17
     kinetic-energy cutoff     =      50.0000  Ry
     charge density cutoff     =     400.0000  Ry
     scf convergence threshold =      1.0E-08
     mixing beta               =       0.4000
     number of iterations used =            8  plain     mixing
     Exchange-correlation= SLA  PW   PBE  PBE
                           (   1   4   3   4   0   0   0)

     celldm(1)=   5.392083  celldm(2)=   0.000000  celldm(3)=   0.000000
     celldm(4)=   0.000000  celldm(5)=   0.000000  celldm(6)=   0.000000

     crystal axes: (cart. coord. in units of alat)
               a(1) = (   1.000000   0.000000   0.000000 )  
               a(2) = (   0.000000   1.000000   0.000000 )  
               a(3) = (   0.000000   0.000000   1.000000 )  

     reciprocal axes: (cart. coord. in units 2 pi/alat)
               b(1) = (  1.000000  0.000000  0.000000 )  
               b(2) = (  0.000000  1.000000  0.000000 )  
               b(3) = (  0.000000  0.000000  1.000000 )  


     PseudoPot. # 1 for O  read from file:
     ../SSSP_1.3.0_PBE_efficiency/O.pbe-n-kjpaw_psl.0.1.UPF
     MD5 check sum: 0234752ac141de4415c5fc33072bef88
     Pseudo is Projector augmented-wave + core cor, Zval =  6.0
     Generated using "atomic" code by A. Dal Corso  v.5.0.99 svn rev. 10869
     Shape of augmentation charge: BESSEL
     Using radial grid of 1095 points,  4 beta functions with: 
                l(1) =   0
                l(2) =   0
                l(3) =   1
                l(4) =   1
     Q(r) pseudized with 0 coefficients 


     PseudoPot. # 2 for Zn read from file:
     ../SSSP_1.3.0_PBE_efficiency/Zn_pbe_v1.uspp.F.UPF
     MD5 check sum: df62231357ef9e81f77b2b3087fa5675
     Pseudo is Ultrasoft, Zval = 20.0
     Generated by new atomic code, or converted to UPF format
     Using radial grid of  943 points,  6 beta functions with: 
                l(1) =   0
                l(2) =   0
                l(3) =   1
                l(4) =   1
                l(5) =   2
                l(6) =   2
     Q(r) pseudized with  8 coefficients,  rinner =    1.100   1.100   1.100
                                                       1.100   1.100

     atomic species   valence    mass     pseudopotential
     O                 6.00    15.99940     O ( 1.00)
     Zn               20.00    65.38000     Zn( 1.00)

     48 Sym. Ops., with inversion, found


                                    s                        frac. trans.

      isym =  1     identity                                     

 cryst.   s( 1) = (     1          0          0      )
                  (     0          1          0      )
                  (     0          0          1      )

 cart.    s( 1) = (  1.0000000  0.0000000  0.0000000 )
                  (  0.0000000  1.0000000  0.0000000 )
                  (  0.0000000  0.0000000  1.0000000 )


      isym =  2     180 deg rotation - cart. axis [0,0,1]        

 cryst.   s( 2) = (    -1          0          0      )
                  (     0         -1          0      )
                  (     0          0          1      )

 cart.    s( 2) = ( -1.0000000  0.0000000  0.0000000 )
                  (  0.0000000 -1.0000000  0.0000000 )
                  (  0.0000000  0.0000000  1.0000000 )


      isym =  3     180 deg rotation - cart. axis [0,1,0]        

 cryst.   s( 3) = (    -1          0          0      )
                  (     0          1          0      )
                  (     0          0         -1      )

 cart.    s( 3) = ( -1.0000000  0.0000000  0.0000000 )
                  (  0.0000000  1.0000000  0.0000000 )
                  (  0.0000000  0.0000000 -1.0000000 )


      isym =  4     180 deg rotation - cart. axis [1,0,0]        

 cryst.   s( 4) = (     1          0          0      )
                  (     0         -1          0      )
                  (     0          0         -1      )

 cart.    s( 4) = (  1.0000000  0.0000000  0.0000000 )
                  (  0.0000000 -1.0000000  0.0000000 )
                  (  0.0000000  0.0000000 -1.0000000 )


      isym =  5     180 deg rotation - cart. axis [1,1,0]        

 cryst.   s( 5) = (     0          1          0      )
                  (     1          0          0      )
                  (     0          0         -1      )

 cart.    s( 5) = (  0.0000000  1.0000000  0.0000000 )
                  (  1.0000000  0.0000000  0.0000000 )
                  (  0.0000000  0.0000000 -1.0000000 )


      isym =  6     180 deg rotation - cart. axis [1,-1,0]       

 cryst.   s( 6) = (     0         -1          0      )
                  (    -1          0          0      )
                  (     0          0         -1      )

 cart.    s( 6) = (  0.0000000 -1.0000000  0.0000000 )
                  ( -1.0000000  0.0000000  0.0000000 )
                  (  0.0000000  0.0000000 -1.0000000 )


      isym =  7      90 deg rotation - cart. axis [0,0,-1]       

 cryst.   s( 7) = (     0         -1          0      )
                  (     1          0          0      )
                  (     0          0          1      )

 cart.    s( 7) = (  0.0000000  1.0000000  0.0000000 )
                  ( -1.0000000  0.0000000  0.0000000 )
                  (  0.0000000  0.0000000  1.0000000 )


      isym =  8      90 deg rotation - cart. axis [0,0,1]        

 cryst.   s( 8) = (     0          1          0      )
                  (    -1          0          0      )
                  (     0          0          1      )

 cart.    s( 8) = (  0.0000000 -1.0000000  0.0000000 )
                  (  1.0000000  0.0000000  0.0000000 )
                  (  0.0000000  0.0000000  1.0000000 )


      isym =  9     180 deg rotation - cart. axis [1,0,1]        

 cryst.   s( 9) = (     0          0          1      )
                  (     0         -1          0      )
                  (     1          0          0      )

 cart.    s( 9) = (  0.0000000  0.0000000  1.0000000 )
                  (  0.0000000 -1.0000000  0.0000000 )
                  (  1.0000000  0.0000000  0.0000000 )


      isym = 10     180 deg rotation - cart. axis [-1,0,1]       

 cryst.   s(10) = (     0          0         -1      )
                  (     0         -1          0      )
                  (    -1          0          0      )

 cart.    s(10) = (  0.0000000  0.0000000 -1.0000000 )
                  (  0.0000000 -1.0000000  0.0000000 )
                  ( -1.0000000  0.0000000  0.0000000 )


      isym = 11      90 deg rotation - cart. axis [0,1,0]        

 cryst.   s(11) = (     0          0         -1      )
                  (     0          1          0      )
                  (     1          0          0      )

 cart.    s(11) = (  0.0000000  0.0000000  1.0000000 )
                  (  0.0000000  1.0000000  0.0000000 )
                  ( -1.0000000  0.0000000  0.0000000 )


      isym = 12      90 deg rotation - cart. axis [0,-1,0]       

 cryst.   s(12) = (     0          0          1      )
                  (     0          1          0      )
                  (    -1          0          0      )

 cart.    s(12) = (  0.0000000  0.0000000 -1.0000000 )
                  (  0.0000000  1.0000000  0.0000000 )
                  (  1.0000000  0.0000000  0.0000000 )


      isym = 13     180 deg rotation - cart. axis [0,1,1]        

 cryst.   s(13) = (    -1          0          0      )
                  (     0          0          1      )
                  (     0          1          0      )

 cart.    s(13) = ( -1.0000000  0.0000000  0.0000000 )
                  (  0.0000000  0.0000000  1.0000000 )
                  (  0.0000000  1.0000000  0.0000000 )


      isym = 14     180 deg rotation - cart. axis [0,1,-1]       

 cryst.   s(14) = (    -1          0          0      )
                  (     0          0         -1      )
                  (     0         -1          0      )

 cart.    s(14) = ( -1.0000000  0.0000000  0.0000000 )
                  (  0.0000000  0.0000000 -1.0000000 )
                  (  0.0000000 -1.0000000  0.0000000 )


      isym = 15      90 deg rotation - cart. axis [-1,0,0]       

 cryst.   s(15) = (     1          0          0      )
                  (     0          0         -1      )
                  (     0          1          0      )

 cart.    s(15) = (  1.0000000  0.0000000  0.0000000 )
                  (  0.0000000  0.0000000  1.0000000 )
                  (  0.0000000 -1.0000000  0.0000000 )


      isym = 16      90 deg rotation - cart. axis [1,0,0]        

 cryst.   s(16) = (     1          0          0      )
                  (     0          0          1      )
                  (     0         -1          0      )

 cart.    s(16) = (  1.0000000  0.0000000  0.0000000 )
                  (  0.0000000  0.0000000 -1.0000000 )
                  (  0.0000000  1.0000000  0.0000000 )


      isym = 17     120 deg rotation - cart. axis [-1,-1,-1]     

 cryst.   s(17) = (     0          0          1      )
                  (     1          0          0      )
                  (     0          1          0      )

 cart.    s(17) = (  0.0000000  1.0000000  0.0000000 )
                  (  0.0000000  0.0000000  1.0000000 )
                  (  1.0000000  0.0000000  0.0000000 )


      isym = 18     120 deg rotation - cart. axis [-1,1,1]       

 cryst.   s(18) = (     0          0         -1      )
                  (    -1          0          0      )
                  (     0          1          0      )

 cart.    s(18) = (  0.0000000 -1.0000000  0.0000000 )
                  (  0.0000000  0.0000000  1.0000000 )
                  ( -1.0000000  0.0000000  0.0000000 )


      isym = 19     120 deg rotation - cart. axis [1,1,-1]       

 cryst.   s(19) = (     0          0         -1      )
                  (     1          0          0      )
                  (     0         -1          0      )

 cart.    s(19) = (  0.0000000  1.0000000  0.0000000 )
                  (  0.0000000  0.0000000 -1.0000000 )
                  ( -1.0000000  0.0000000  0.0000000 )


      isym = 20     120 deg rotation - cart. axis [1,-1,1]       

 cryst.   s(20) = (     0          0          1      )
                  (    -1          0          0      )
                  (     0         -1          0      )

 cart.    s(20) = (  0.0000000 -1.0000000  0.0000000 )
                  (  0.0000000  0.0000000 -1.0000000 )
                  (  1.0000000  0.0000000  0.0000000 )


      isym = 21     120 deg rotation - cart. axis [1,1,1]        

 cryst.   s(21) = (     0          1          0      )
                  (     0          0          1      )
                  (     1          0          0      )

 cart.    s(21) = (  0.0000000  0.0000000  1.0000000 )
                  (  1.0000000  0.0000000  0.0000000 )
                  (  0.0000000  1.0000000  0.0000000 )


      isym = 22     120 deg rotation - cart. axis [-1,1,-1]      

 cryst.   s(22) = (     0         -1          0      )
                  (     0          0         -1      )
                  (     1          0          0      )

 cart.    s(22) = (  0.0000000  0.0000000  1.0000000 )
                  ( -1.0000000  0.0000000  0.0000000 )
                  (  0.0000000 -1.0000000  0.0000000 )


      isym = 23     120 deg rotation - cart. axis [1,-1,-1]      

 cryst.   s(23) = (     0         -1          0      )
                  (     0          0          1      )
                  (    -1          0          0      )

 cart.    s(23) = (  0.0000000  0.0000000 -1.0000000 )
                  ( -1.0000000  0.0000000  0.0000000 )
                  (  0.0000000  1.0000000  0.0000000 )


      isym = 24     120 deg rotation - cart. axis [-1,-1,1]      

 cryst.   s(24) = (     0          1          0      )
                  (     0          0         -1      )
                  (    -1          0          0      )

 cart.    s(24) = (  0.0000000  0.0000000 -1.0000000 )
                  (  1.0000000  0.0000000  0.0000000 )
                  (  0.0000000 -1.0000000  0.0000000 )


      isym = 25     inversion                                    

 cryst.   s(25) = (    -1          0          0      )
                  (     0         -1          0      )
                  (     0          0         -1      )

 cart.    s(25) = ( -1.0000000  0.0000000  0.0000000 )
                  (  0.0000000 -1.0000000  0.0000000 )
                  (  0.0000000  0.0000000 -1.0000000 )


      isym = 26     inv. 180 deg rotation - cart. axis [0,0,1]   

 cryst.   s(26) = (     1          0          0      )
                  (     0          1          0      )
                  (     0          0         -1      )

 cart.    s(26) = (  1.0000000  0.0000000  0.0000000 )
                  (  0.0000000  1.0000000  0.0000000 )
                  (  0.0000000  0.0000000 -1.0000000 )


      isym = 27     inv. 180 deg rotation - cart. axis [0,1,0]   

 cryst.   s(27) = (     1          0          0      )
                  (     0         -1          0      )
                  (     0          0          1      )

 cart.    s(27) = (  1.0000000  0.0000000  0.0000000 )
                  (  0.0000000 -1.0000000  0.0000000 )
                  (  0.0000000  0.0000000  1.0000000 )


      isym = 28     inv. 180 deg rotation - cart. axis [1,0,0]   

 cryst.   s(28) = (    -1          0          0      )
                  (     0          1          0      )
                  (     0          0          1      )

 cart.    s(28) = ( -1.0000000  0.0000000  0.0000000 )
                  (  0.0000000  1.0000000  0.0000000 )
                  (  0.0000000  0.0000000  1.0000000 )


      isym = 29     inv. 180 deg rotation - cart. axis [1,1,0]   

 cryst.   s(29) = (     0         -1          0      )
                  (    -1          0          0      )
                  (     0          0          1      )

 cart.    s(29) = (  0.0000000 -1.0000000  0.0000000 )
                  ( -1.0000000  0.0000000  0.0000000 )
                  (  0.0000000  0.0000000  1.0000000 )


      isym = 30     inv. 180 deg rotation - cart. axis [1,-1,0]  

 cryst.   s(30) = (     0          1          0      )
                  (     1          0          0      )
                  (     0          0          1      )

 cart.    s(30) = (  0.0000000  1.0000000  0.0000000 )
                  (  1.0000000  0.0000000  0.0000000 )
                  (  0.0000000  0.0000000  1.0000000 )


      isym = 31     inv.  90 deg rotation - cart. axis [0,0,-1]  

 cryst.   s(31) = (     0          1          0      )
                  (    -1          0          0      )
                  (     0          0         -1      )

 cart.    s(31) = (  0.0000000 -1.0000000  0.0000000 )
                  (  1.0000000  0.0000000  0.0000000 )
                  (  0.0000000  0.0000000 -1.0000000 )


      isym = 32     inv.  90 deg rotation - cart. axis [0,0,1]   

 cryst.   s(32) = (     0         -1          0      )
                  (     1          0          0      )
                  (     0          0         -1      )

 cart.    s(32) = (  0.0000000  1.0000000  0.0000000 )
                  ( -1.0000000  0.0000000  0.0000000 )
                  (  0.0000000  0.0000000 -1.0000000 )


      isym = 33     inv. 180 deg rotation - cart. axis [1,0,1]   

 cryst.   s(33) = (     0          0         -1      )
                  (     0          1          0      )
                  (    -1          0          0      )

 cart.    s(33) = (  0.0000000  0.0000000 -1.0000000 )
                  (  0.0000000  1.0000000  0.0000000 )
                  ( -1.0000000  0.0000000  0.0000000 )


      isym = 34     inv. 180 deg rotation - cart. axis [-1,0,1]  

 cryst.   s(34) = (     0          0          1      )
                  (     0          1          0      )
                  (     1          0          0      )

 cart.    s(34) = (  0.0000000  0.0000000  1.0000000 )
                  (  0.0000000  1.0000000  0.0000000 )
                  (  1.0000000  0.0000000  0.0000000 )


      isym = 35     inv.  90 deg rotation - cart. axis [0,1,0]   

 cryst.   s(35) = (     0          0          1      )
                  (     0         -1          0      )
                  (    -1          0          0      )

 cart.    s(35) = (  0.0000000  0.0000000 -1.0000000 )
                  (  0.0000000 -1.0000000  0.0000000 )
                  (  1.0000000  0.0000000  0.0000000 )


      isym = 36     inv.  90 deg rotation - cart. axis [0,-1,0]  

 cryst.   s(36) = (     0          0         -1      )
                  (     0         -1          0      )
                  (     1          0          0      )

 cart.    s(36) = (  0.0000000  0.0000000  1.0000000 )
                  (  0.0000000 -1.0000000  0.0000000 )
                  ( -1.0000000  0.0000000  0.0000000 )


      isym = 37     inv. 180 deg rotation - cart. axis [0,1,1]   

 cryst.   s(37) = (     1          0          0      )
                  (     0          0         -1      )
                  (     0         -1          0      )

 cart.    s(37) = (  1.0000000  0.0000000  0.0000000 )
                  (  0.0000000  0.0000000 -1.0000000 )
                  (  0.0000000 -1.0000000  0.0000000 )


      isym = 38     inv. 180 deg rotation - cart. axis [0,1,-1]  

 cryst.   s(38) = (     1          0          0      )
                  (     0          0          1      )
                  (     0          1          0      )

 cart.    s(38) = (  1.0000000  0.0000000  0.0000000 )
                  (  0.0000000  0.0000000  1.0000000 )
                  (  0.0000000  1.0000000  0.0000000 )


      isym = 39     inv.  90 deg rotation - cart. axis [-1,0,0]  

 cryst.   s(39) = (    -1          0          0      )
                  (     0          0          1      )
                  (     0         -1          0      )

 cart.    s(39) = ( -1.0000000  0.0000000  0.0000000 )
                  (  0.0000000  0.0000000 -1.0000000 )
                  (  0.0000000  1.0000000  0.0000000 )


      isym = 40     inv.  90 deg rotation - cart. axis [1,0,0]   

 cryst.   s(40) = (    -1          0          0      )
                  (     0          0         -1      )
                  (     0          1          0      )

 cart.    s(40) = ( -1.0000000  0.0000000  0.0000000 )
                  (  0.0000000  0.0000000  1.0000000 )
                  (  0.0000000 -1.0000000  0.0000000 )


      isym = 41     inv. 120 deg rotation - cart. axis [-1,-1,-1]

 cryst.   s(41) = (     0          0         -1      )
                  (    -1          0          0      )
                  (     0         -1          0      )

 cart.    s(41) = (  0.0000000 -1.0000000  0.0000000 )
                  (  0.0000000  0.0000000 -1.0000000 )
                  ( -1.0000000  0.0000000  0.0000000 )


      isym = 42     inv. 120 deg rotation - cart. axis [-1,1,1]  

 cryst.   s(42) = (     0          0          1      )
                  (     1          0          0      )
                  (     0         -1          0      )

 cart.    s(42) = (  0.0000000  1.0000000  0.0000000 )
                  (  0.0000000  0.0000000 -1.0000000 )
                  (  1.0000000  0.0000000  0.0000000 )


      isym = 43     inv. 120 deg rotation - cart. axis [1,1,-1]  

 cryst.   s(43) = (     0          0          1      )
                  (    -1          0          0      )
                  (     0          1          0      )

 cart.    s(43) = (  0.0000000 -1.0000000  0.0000000 )
                  (  0.0000000  0.0000000  1.0000000 )
                  (  1.0000000  0.0000000  0.0000000 )


      isym = 44     inv. 120 deg rotation - cart. axis [1,-1,1]  

 cryst.   s(44) = (     0          0         -1      )
                  (     1          0          0      )
                  (     0          1          0      )

 cart.    s(44) = (  0.0000000  1.0000000  0.0000000 )
                  (  0.0000000  0.0000000  1.0000000 )
                  ( -1.0000000  0.0000000  0.0000000 )


      isym = 45     inv. 120 deg rotation - cart. axis [1,1,1]   

 cryst.   s(45) = (     0         -1          0      )
                  (     0          0         -1      )
                  (    -1          0          0      )

 cart.    s(45) = (  0.0000000  0.0000000 -1.0000000 )
                  ( -1.0000000  0.0000000  0.0000000 )
                  (  0.0000000 -1.0000000  0.0000000 )


      isym = 46     inv. 120 deg rotation - cart. axis [-1,1,-1] 

 cryst.   s(46) = (     0          1          0      )
                  (     0          0          1      )
                  (    -1          0          0      )

 cart.    s(46) = (  0.0000000  0.0000000 -1.0000000 )
                  (  1.0000000  0.0000000  0.0000000 )
                  (  0.0000000  1.0000000  0.0000000 )


      isym = 47     inv. 120 deg rotation - cart. axis [1,-1,-1] 

 cryst.   s(47) = (     0          1          0      )
                  (     0          0         -1      )
                  (     1          0          0      )

 cart.    s(47) = (  0.0000000  0.0000000  1.0000000 )
                  (  1.0000000  0.0000000  0.0000000 )
                  (  0.0000000 -1.0000000  0.0000000 )


      isym = 48     inv. 120 deg rotation - cart. axis [-1,-1,1] 

 cryst.   s(48) = (     0         -1          0      )
                  (     0          0          1      )
                  (     1          0          0      )

 cart.    s(48) = (  0.0000000  0.0000000  1.0000000 )
                  ( -1.0000000  0.0000000  0.0000000 )
                  (  0.0000000  1.0000000  0.0000000 )


   Cartesian axes

     site n.     atom                  positions (alat units)
         1        Zn     tau(   1) = (   0.0000000   0.0000000   0.0000000  )
         2        O      tau(   2) = (   0.5000000   0.5000000   0.5000000  )

   Crystallographic axes

     site n.     atom                  positions (cryst. coord.)
         1        Zn     tau(   1) = (  0.0000000  0.0000000  0.0000000  )
         2        O      tau(   2) = (  0.5000000  0.5000000  0.5000000  )

     number of k points=    84  Marzari-Vanderbilt smearing, width (Ry)=  0.0147
                       cart. coord. in units 2pi/alat
        k(    1) = (   0.0000000   0.0000000   0.0000000), wk =   0.0011574
        k(    2) = (   0.0000000   0.0000000   0.0833333), wk =   0.0069444
        k(    3) = (   0.0000000   0.0000000   0.1666667), wk =   0.0069444
        k(    4) = (   0.0000000   0.0000000   0.2500000), wk =   0.0069444
        k(    5) = (   0.0000000   0.0000000   0.3333333), wk =   0.0069444
        k(    6) = (   0.0000000   0.0000000   0.4166667), wk =   0.0069444
        k(    7) = (   0.0000000   0.0000000  -0.5000000), wk =   0.0034722
        k(    8) = (   0.0000000   0.0833333   0.0833333), wk =   0.0138889
        k(    9) = (   0.0000000   0.0833333   0.1666667), wk =   0.0277778
        k(   10) = (   0.0000000   0.0833333   0.2500000), wk =   0.0277778
        k(   11) = (   0.0000000   0.0833333   0.3333333), wk =   0.0277778
        k(   12) = (   0.0000000   0.0833333   0.4166667), wk =   0.0277778
        k(   13) = (   0.0000000   0.0833333  -0.5000000), wk =   0.0138889
        k(   14) = (   0.0000000   0.1666667   0.1666667), wk =   0.0138889
        k(   15) = (   0.0000000   0.1666667   0.2500000), wk =   0.0277778
        k(   16) = (   0.0000000   0.1666667   0.3333333), wk =   0.0277778
        k(   17) = (   0.0000000   0.1666667   0.4166667), wk =   0.0277778
        k(   18) = (   0.0000000   0.1666667  -0.5000000), wk =   0.0138889
        k(   19) = (   0.0000000   0.2500000   0.2500000), wk =   0.0138889
        k(   20) = (   0.0000000   0.2500000   0.3333333), wk =   0.0277778
        k(   21) = (   0.0000000   0.2500000   0.4166667), wk =   0.0277778
        k(   22) = (   0.0000000   0.2500000  -0.5000000), wk =   0.0138889
        k(   23) = (   0.0000000   0.3333333   0.3333333), wk =   0.0138889
        k(   24) = (   0.0000000   0.3333333   0.4166667), wk =   0.0277778
        k(   25) = (   0.0000000   0.3333333  -0.5000000), wk =   0.0138889
        k(   26) = (   0.0000000   0.4166667   0.4166667), wk =   0.0138889
        k(   27) = (   0.0000000   0.4166667  -0.5000000), wk =   0.0138889
        k(   28) = (   0.0000000  -0.5000000  -0.5000000), wk =   0.0034722
        k(   29) = (   0.0833333   0.0833333   0.0833333), wk =   0.0092593
        k(   30) = (   0.0833333   0.0833333   0.1666667), wk =   0.0277778
        k(   31) = (   0.0833333   0.0833333   0.2500000), wk =   0.0277778
        k(   32) = (   0.0833333   0.0833333   0.3333333), wk =   0.0277778
        k(   33) = (   0.0833333   0.0833333   0.4166667), wk =   0.0277778
        k(   34) = (   0.0833333   0.0833333  -0.5000000), wk =   0.0138889
        k(   35) = (   0.0833333   0.1666667   0.1666667), wk =   0.0277778
        k(   36) = (   0.0833333   0.1666667   0.2500000), wk =   0.0555556
        k(   37) = (   0.0833333   0.1666667   0.3333333), wk =   0.0555556
        k(   38) = (   0.0833333   0.1666667   0.4166667), wk =   0.0555556
        k(   39) = (   0.0833333   0.1666667  -0.5000000), wk =   0.0277778
        k(   40) = (   0.0833333   0.2500000   0.2500000), wk =   0.0277778
        k(   41) = (   0.0833333   0.2500000   0.3333333), wk =   0.0555556
        k(   42) = (   0.0833333   0.2500000   0.4166667), wk =   0.0555556
        k(   43) = (   0.0833333   0.2500000  -0.5000000), wk =   0.0277778
        k(   44) = (   0.0833333   0.3333333   0.3333333), wk =   0.0277778
        k(   45) = (   0.0833333   0.3333333   0.4166667), wk =   0.0555556
        k(   46) = (   0.0833333   0.3333333  -0.5000000), wk =   0.0277778
        k(   47) = (   0.0833333   0.4166667   0.4166667), wk =   0.0277778
        k(   48) = (   0.0833333   0.4166667  -0.5000000), wk =   0.0277778
        k(   49) = (   0.0833333  -0.5000000  -0.5000000), wk =   0.0069444
        k(   50) = (   0.1666667   0.1666667   0.1666667), wk =   0.0092593
        k(   51) = (   0.1666667   0.1666667   0.2500000), wk =   0.0277778
        k(   52) = (   0.1666667   0.1666667   0.3333333), wk =   0.0277778
        k(   53) = (   0.1666667   0.1666667   0.4166667), wk =   0.0277778
        k(   54) = (   0.1666667   0.1666667  -0.5000000), wk =   0.0138889
        k(   55) = (   0.1666667   0.2500000   0.2500000), wk =   0.0277778
        k(   56) = (   0.1666667   0.2500000   0.3333333), wk =   0.0555556
        k(   57) = (   0.1666667   0.2500000   0.4166667), wk =   0.0555556
        k(   58) = (   0.1666667   0.2500000  -0.5000000), wk =   0.0277778
        k(   59) = (   0.1666667   0.3333333   0.3333333), wk =   0.0277778
        k(   60) = (   0.1666667   0.3333333   0.4166667), wk =   0.0555556
        k(   61) = (   0.1666667   0.3333333  -0.5000000), wk =   0.0277778
        k(   62) = (   0.1666667   0.4166667   0.4166667), wk =   0.0277778
        k(   63) = (   0.1666667   0.4166667  -0.5000000), wk =   0.0277778
        k(   64) = (   0.1666667  -0.5000000  -0.5000000), wk =   0.0069444
        k(   65) = (   0.2500000   0.2500000   0.2500000), wk =   0.0092593
        k(   66) = (   0.2500000   0.2500000   0.3333333), wk =   0.0277778
        k(   67) = (   0.2500000   0.2500000   0.4166667), wk =   0.0277778
        k(   68) = (   0.2500000   0.2500000  -0.5000000), wk =   0.0138889
        k(   69) = (   0.2500000   0.3333333   0.3333333), wk =   0.0277778
        k(   70) = (   0.2500000   0.3333333   0.4166667), wk =   0.0555556
        k(   71) = (   0.2500000   0.3333333  -0.5000000), wk =   0.0277778
        k(   72) = (   0.2500000   0.4166667   0.4166667), wk =   0.0277778
        k(   73) = (   0.2500000   0.4166667  -0.5000000), wk =   0.0277778
        k(   74) = (   0.2500000  -0.5000000  -0.5000000), wk =   0.0069444
        k(   75) = (   0.3333333   0.3333333   0.3333333), wk =   0.0092593
        k(   76) = (   0.3333333   0.3333333   0.4166667), wk =   0.0277778
        k(   77) = (   0.3333333   0.3333333  -0.5000000), wk =   0.0138889
        k(   78) = (   0.3333333   0.4166667   0.4166667), wk =   0.0277778
        k(   79) = (   0.3333333   0.4166667  -0.5000000), wk =   0.0277778
        k(   80) = (   0.3333333  -0.5000000  -0.5000000), wk =   0.0069444
        k(   81) = (   0.4166667   0.4166667   0.4166667), wk =   0.0092593
        k(   82) = (   0.4166667   0.4166667  -0.5000000), wk =   0.0138889
        k(   83) = (   0.4166667  -0.5000000  -0.5000000), wk =   0.0069444
        k(   84) = (  -0.5000000  -0.5000000  -0.5000000), wk =   0.0011574

                       cryst. coord.
        k(    1) = (   0.0000000   0.0000000   0.0000000), wk =   0.0011574
        k(    2) = (   0.0000000   0.0000000   0.0833333), wk =   0.0069444
        k(    3) = (   0.0000000   0.0000000   0.1666667), wk =   0.0069444
        k(    4) = (   0.0000000   0.0000000   0.2500000), wk =   0.0069444
        k(    5) = (   0.0000000   0.0000000   0.3333333), wk =   0.0069444
        k(    6) = (   0.0000000   0.0000000   0.4166667), wk =   0.0069444
        k(    7) = (   0.0000000   0.0000000  -0.5000000), wk =   0.0034722
        k(    8) = (   0.0000000   0.0833333   0.0833333), wk =   0.0138889
        k(    9) = (   0.0000000   0.0833333   0.1666667), wk =   0.0277778
        k(   10) = (   0.0000000   0.0833333   0.2500000), wk =   0.0277778
        k(   11) = (   0.0000000   0.0833333   0.3333333), wk =   0.0277778
        k(   12) = (   0.0000000   0.0833333   0.4166667), wk =   0.0277778
        k(   13) = (   0.0000000   0.0833333  -0.5000000), wk =   0.0138889
        k(   14) = (   0.0000000   0.1666667   0.1666667), wk =   0.0138889
        k(   15) = (   0.0000000   0.1666667   0.2500000), wk =   0.0277778
        k(   16) = (   0.0000000   0.1666667   0.3333333), wk =   0.0277778
        k(   17) = (   0.0000000   0.1666667   0.4166667), wk =   0.0277778
        k(   18) = (   0.0000000   0.1666667  -0.5000000), wk =   0.0138889
        k(   19) = (   0.0000000   0.2500000   0.2500000), wk =   0.0138889
        k(   20) = (   0.0000000   0.2500000   0.3333333), wk =   0.0277778
        k(   21) = (   0.0000000   0.2500000   0.4166667), wk =   0.0277778
        k(   22) = (   0.0000000   0.2500000  -0.5000000), wk =   0.0138889
        k(   23) = (   0.0000000   0.3333333   0.3333333), wk =   0.0138889
        k(   24) = (   0.0000000   0.3333333   0.4166667), wk =   0.0277778
        k(   25) = (   0.0000000   0.3333333  -0.5000000), wk =   0.0138889
        k(   26) = (   0.0000000   0.4166667   0.4166667), wk =   0.0138889
        k(   27) = (   0.0000000   0.4166667  -0.5000000), wk =   0.0138889
        k(   28) = (   0.0000000  -0.5000000  -0.5000000), wk =   0.0034722
        k(   29) = (   0.0833333   0.0833333   0.0833333), wk =   0.0092593
        k(   30) = (   0.0833333   0.0833333   0.1666667), wk =   0.0277778
        k(   31) = (   0.0833333   0.0833333   0.2500000), wk =   0.0277778
        k(   32) = (   0.0833333   0.0833333   0.3333333), wk =   0.0277778
        k(   33) = (   0.0833333   0.0833333   0.4166667), wk =   0.0277778
        k(   34) = (   0.0833333   0.0833333  -0.5000000), wk =   0.0138889
        k(   35) = (   0.0833333   0.1666667   0.1666667), wk =   0.0277778
        k(   36) = (   0.0833333   0.1666667   0.2500000), wk =   0.0555556
        k(   37) = (   0.0833333   0.1666667   0.3333333), wk =   0.0555556
        k(   38) = (   0.0833333   0.1666667   0.4166667), wk =   0.0555556
        k(   39) = (   0.0833333   0.1666667  -0.5000000), wk =   0.0277778
        k(   40) = (   0.0833333   0.2500000   0.2500000), wk =   0.0277778
        k(   41) = (   0.0833333   0.2500000   0.3333333), wk =   0.0555556
        k(   42) = (   0.0833333   0.2500000   0.4166667), wk =   0.0555556
        k(   43) = (   0.0833333   0.2500000  -0.5000000), wk =   0.0277778
        k(   44) = (   0.0833333   0.3333333   0.3333333), wk =   0.0277778
        k(   45) = (   0.0833333   0.3333333   0.4166667), wk =   0.0555556
        k(   46) = (   0.0833333   0.3333333  -0.5000000), wk =   0.0277778
        k(   47) = (   0.0833333   0.4166667   0.4166667), wk =   0.0277778
        k(   48) = (   0.0833333   0.4166667  -0.5000000), wk =   0.0277778
        k(   49) = (   0.0833333  -0.5000000  -0.5000000), wk =   0.0069444
        k(   50) = (   0.1666667   0.1666667   0.1666667), wk =   0.0092593
        k(   51) = (   0.1666667   0.1666667   0.2500000), wk =   0.0277778
        k(   52) = (   0.1666667   0.1666667   0.3333333), wk =   0.0277778
        k(   53) = (   0.1666667   0.1666667   0.4166667), wk =   0.0277778
        k(   54) = (   0.1666667   0.1666667  -0.5000000), wk =   0.0138889
        k(   55) = (   0.1666667   0.2500000   0.2500000), wk =   0.0277778
        k(   56) = (   0.1666667   0.2500000   0.3333333), wk =   0.0555556
        k(   57) = (   0.1666667   0.2500000   0.4166667), wk =   0.0555556
        k(   58) = (   0.1666667   0.2500000  -0.5000000), wk =   0.0277778
        k(   59) = (   0.1666667   0.3333333   0.3333333), wk =   0.0277778
        k(   60) = (   0.1666667   0.3333333   0.4166667), wk =   0.0555556
        k(   61) = (   0.1666667   0.3333333  -0.5000000), wk =   0.0277778
        k(   62) = (   0.1666667   0.4166667   0.4166667), wk =   0.0277778
        k(   63) = (   0.1666667   0.4166667  -0.5000000), wk =   0.0277778
        k(   64) = (   0.1666667  -0.5000000  -0.5000000), wk =   0.0069444
        k(   65) = (   0.2500000   0.2500000   0.2500000), wk =   0.0092593
        k(   66) = (   0.2500000   0.2500000   0.3333333), wk =   0.0277778
        k(   67) = (   0.2500000   0.2500000   0.4166667), wk =   0.0277778
        k(   68) = (   0.2500000   0.2500000  -0.5000000), wk =   0.0138889
        k(   69) = (   0.2500000   0.3333333   0.3333333), wk =   0.0277778
        k(   70) = (   0.2500000   0.3333333   0.4166667), wk =   0.0555556
        k(   71) = (   0.2500000   0.3333333  -0.5000000), wk =   0.0277778
        k(   72) = (   0.2500000   0.4166667   0.4166667), wk =   0.0277778
        k(   73) = (   0.2500000   0.4166667  -0.5000000), wk =   0.0277778
        k(   74) = (   0.2500000  -0.5000000  -0.5000000), wk =   0.0069444
        k(   75) = (   0.3333333   0.3333333   0.3333333), wk =   0.0092593
        k(   76) = (   0.3333333   0.3333333   0.4166667), wk =   0.0277778
        k(   77) = (   0.3333333   0.3333333  -0.5000000), wk =   0.0138889
        k(   78) = (   0.3333333   0.4166667   0.4166667), wk =   0.0277778
        k(   79) = (   0.3333333   0.4166667  -0.5000000), wk =   0.0277778
        k(   80) = (   0.3333333  -0.5000000  -0.5000000), wk =   0.0069444
        k(   81) = (   0.4166667   0.4166667   0.4166667), wk =   0.0092593
        k(   82) = (   0.4166667   0.4166667  -0.5000000), wk =   0.0138889
        k(   83) = (   0.4166667  -0.5000000  -0.5000000), wk =   0.0069444
        k(   84) = (  -0.5000000  -0.5000000  -0.5000000), wk =   0.0011574

     Dense  grid:    21247 G-vectors     FFT dimensions: (  36,  36,  36)

     Smooth grid:     7497 G-vectors     FFT dimensions: (  25,  25,  25)

     Dynamical RAM for                 wfc:       0.24 MB

     Dynamical RAM for     wfc (w. buffer):      20.64 MB

     Dynamical RAM for           str. fact:       0.65 MB

     Dynamical RAM for           local pot:       0.00 MB

     Dynamical RAM for          nlocal pot:       0.37 MB

     Dynamical RAM for                qrad:       3.21 MB

     Dynamical RAM for          rho,v,vnew:       2.04 MB

     Dynamical RAM for               rhoin:       0.68 MB

     Dynamical RAM for            rho*nmix:       5.19 MB

     Dynamical RAM for           G-vectors:       1.27 MB

     Dynamical RAM for          h,s,v(r/c):       0.05 MB

     Dynamical RAM for          <psi|beta>:       0.01 MB

     Dynamical RAM for                 psi:       0.49 MB

     Dynamical RAM for                hpsi:       0.49 MB

     Dynamical RAM for                spsi:       0.49 MB

     Dynamical RAM for      wfcinit/wfcrot:       0.49 MB

     Dynamical RAM for           addusdens:      60.63 MB

     Dynamical RAM for          addusforce:      60.79 MB

     Dynamical RAM for         addusstress:      65.16 MB

     Estimated static dynamical RAM per process >      31.61 MB

     Estimated max dynamical RAM per process >     101.97 MB

     Check: negative core charge=   -0.000003

     Initial potential from superposition of free atoms

     starting charge      25.9999, renormalised to      26.0000
     Starting wfcs are   17 randomized atomic wfcs
     Checking if some PAW data can be deallocated... 

     total cpu time spent up to now is        2.2 secs

     Self-consistent Calculation

     iteration #  1     ecut=    50.00 Ry     beta= 0.40
     Davidson diagonalization with overlap

---- Real-time Memory Report at c_bands before calling an iterative solver
           109 MiB given to the printing process from OS
             0 MiB allocation reported by mallinfo(arena+hblkhd)
          6785 MiB available memory on the node where the printing process lives
------------------
     ethr =  1.00E-02,  avg # of iterations =  2.6

     total cpu time spent up to now is        8.3 secs

     WARNING: integrated charge=    26.00025544, expected=    26.00000000

     total energy              =    -502.98867688 Ry
     estimated scf accuracy    <       0.54016726 Ry

     iteration #  2     ecut=    50.00 Ry     beta= 0.40
     Davidson diagonalization with overlap

---- Real-time Memory Report at c_bands before calling an iterative solver
           145 MiB given to the printing process from OS
             0 MiB allocation reported by mallinfo(arena+hblkhd)
          6764 MiB available memory on the node where the printing process lives
------------------
     ethr =  2.08E-03,  avg # of iterations =  2.1

     total cpu time spent up to now is       12.3 secs

     WARNING: integrated charge=    26.00018688, expected=    26.00000000

     total energy              =    -503.13762094 Ry
     estimated scf accuracy    <       0.14539961 Ry

     iteration #  3     ecut=    50.00 Ry     beta= 0.40
     Davidson diagonalization with overlap

---- Real-time Memory Report at c_bands before calling an iterative solver
           145 MiB given to the printing process from OS
             0 MiB allocation reported by mallinfo(arena+hblkhd)
          6760 MiB available memory on the node where the printing process lives
------------------
     ethr =  5.59E-04,  avg # of iterations =  2.1
     Minimization algorithm failed to find Fermi energy: reverting to bisection
     Possible cause: smearing is larger than the electronic band-gap.

     total cpu time spent up to now is       16.1 secs

     WARNING: integrated charge=    26.00006330, expected=    26.00000000

     total energy              =    -503.15946812 Ry
     estimated scf accuracy    <       0.00645158 Ry

     iteration #  4     ecut=    50.00 Ry     beta= 0.40
     Davidson diagonalization with overlap

---- Real-time Memory Report at c_bands before calling an iterative solver
           146 MiB given to the printing process from OS
             0 MiB allocation reported by mallinfo(arena+hblkhd)
          6754 MiB available memory on the node where the printing process lives
------------------
     ethr =  2.48E-05,  avg # of iterations =  2.3
     Minimization algorithm failed to find Fermi energy: reverting to bisection
     Possible cause: smearing is larger than the electronic band-gap.

     total cpu time spent up to now is       20.0 secs

     WARNING: integrated charge=    26.00001495, expected=    26.00000000

     total energy              =    -503.15983462 Ry
     estimated scf accuracy    <       0.00042180 Ry

     iteration #  5     ecut=    50.00 Ry     beta= 0.40
     Davidson diagonalization with overlap

---- Real-time Memory Report at c_bands before calling an iterative solver
           146 MiB given to the printing process from OS
             0 MiB allocation reported by mallinfo(arena+hblkhd)
          6753 MiB available memory on the node where the printing process lives
------------------
     ethr =  1.62E-06,  avg # of iterations =  2.2

     total cpu time spent up to now is       23.4 secs

     WARNING: integrated charge=    26.00000779, expected=    26.00000000

     total energy              =    -503.15988026 Ry
     estimated scf accuracy    <       0.00001235 Ry

     iteration #  6     ecut=    50.00 Ry     beta= 0.40
     Davidson diagonalization with overlap

---- Real-time Memory Report at c_bands before calling an iterative solver
           146 MiB given to the printing process from OS
             0 MiB allocation reported by mallinfo(arena+hblkhd)
          6752 MiB available memory on the node where the printing process lives
------------------
     ethr =  4.75E-08,  avg # of iterations =  2.1
     Minimization algorithm failed to find Fermi energy: reverting to bisection
     Possible cause: smearing is larger than the electronic band-gap.

     total cpu time spent up to now is       27.6 secs

     total energy              =    -503.15988234 Ry
     estimated scf accuracy    <       0.00000804 Ry

     iteration #  7     ecut=    50.00 Ry     beta= 0.40
     Davidson diagonalization with overlap

---- Real-time Memory Report at c_bands before calling an iterative solver
           146 MiB given to the printing process from OS
             0 MiB allocation reported by mallinfo(arena+hblkhd)
          6752 MiB available memory on the node where the printing process lives
------------------
     ethr =  3.09E-08,  avg # of iterations =  1.8
     Minimization algorithm failed to find Fermi energy: reverting to bisection
     Possible cause: smearing is larger than the electronic band-gap.

     total cpu time spent up to now is       31.0 secs

     total energy              =    -503.15988297 Ry
     estimated scf accuracy    <       0.00000002 Ry

     iteration #  8     ecut=    50.00 Ry     beta= 0.40
     Davidson diagonalization with overlap

---- Real-time Memory Report at c_bands before calling an iterative solver
           147 MiB given to the printing process from OS
             0 MiB allocation reported by mallinfo(arena+hblkhd)
          6751 MiB available memory on the node where the printing process lives
------------------
     ethr =  8.13E-11,  avg # of iterations =  2.5
     Minimization algorithm failed to find Fermi energy: reverting to bisection
     Possible cause: smearing is larger than the electronic band-gap.

     total cpu time spent up to now is       37.6 secs

     total energy              =    -503.15988300 Ry
     estimated scf accuracy    <       0.00000009 Ry

     iteration #  9     ecut=    50.00 Ry     beta= 0.40
     Davidson diagonalization with overlap

---- Real-time Memory Report at c_bands before calling an iterative solver
           147 MiB given to the printing process from OS
             0 MiB allocation reported by mallinfo(arena+hblkhd)
          6748 MiB available memory on the node where the printing process lives
------------------
     ethr =  8.13E-11,  avg # of iterations =  2.0
     Minimization algorithm failed to find Fermi energy: reverting to bisection
     Possible cause: smearing is larger than the electronic band-gap.

     total cpu time spent up to now is       42.6 secs

     total energy              =    -503.15988299 Ry
     estimated scf accuracy    <       0.00000003 Ry

     iteration # 10     ecut=    50.00 Ry     beta= 0.40
     Davidson diagonalization with overlap

---- Real-time Memory Report at c_bands before calling an iterative solver
           147 MiB given to the printing process from OS
             0 MiB allocation reported by mallinfo(arena+hblkhd)
          6748 MiB available memory on the node where the printing process lives
------------------
     ethr =  8.13E-11,  avg # of iterations =  2.0
     Minimization algorithm failed to find Fermi energy: reverting to bisection
     Possible cause: smearing is larger than the electronic band-gap.

     total cpu time spent up to now is       46.9 secs

     End of self-consistent calculation

          k = 0.0000 0.0000 0.0000 (   925 PWs)   bands (ev):

  -115.3222 -69.5032 -69.5032 -69.5032  -7.7917   3.2424   3.2424   3.9815
     3.9815   3.9815   7.8287   8.5893   8.5893   8.5893  22.6786  22.6786
    24.5470

     occupation numbers 
     1.0000   1.0000   1.0000   1.0000   1.0000   1.0000   1.0000   1.0000
     1.0000   1.0000   1.0000   1.0000   1.0000   1.0000   0.0000   0.0000
     0.0000

          k = 0.0000 0.0000 0.0833 (   928 PWs)   bands (ev):

  -115.3222 -69.5038 -69.5032 -69.5032  -7.7432   3.2480   3.2588   3.9549
     3.9549   3.9830   7.1376   8.6453   8.6453   9.2475  21.7173  22.7781
    24.4942

     occupation numbers 
     1.0000   1.0000   1.0000   1.0000   1.0000   1.0000   1.0000   1.0000
     1.0000   1.0000   1.0000   1.0000   1.0000   1.0770   0.0000   0.0000
     0.0000

          k = 0.0000 0.0000 0.1667 (   936 PWs)   bands (ev):

  -115.3221 -69.5054 -69.5031 -69.5031  -7.6065   3.2631   3.2783   3.8844
     3.8844   3.9871   6.2233   8.7979   8.7979  10.1268  20.1688  23.0780
    24.3348

     occupation numbers 
     1.0000   1.0000   1.0000   1.0000   1.0000   1.0000   1.0000   1.0000
     1.0000   1.0000   1.0000   1.0001   1.0001   0.0000   0.0000   0.0000
     0.0000

          k = 0.0000 0.0000 0.2500 (   932 PWs)   bands (ev):

  -115.3220 -69.5072 -69.5030 -69.5030  -7.4088   3.2107   3.2837   3.7930
     3.7930   3.9927   5.4905   9.0060   9.0060  11.0025  18.5518  24.0826
    24.0830

     occupation numbers 
     1.0000   1.0000   1.0000   1.0000   1.0000   1.0000   1.0000   1.0000
     1.0000   1.0000   1.0000   1.0115   1.0115   0.0000   0.0000   0.0000
     0.0000

          k = 0.0000 0.0000 0.3333 (   932 PWs)   bands (ev):

  -115.3219 -69.5091 -69.5029 -69.5029  -7.1962   2.9739   3.3045   3.7064
     3.7064   3.9983   5.0949   9.2151   9.2151  11.9134  16.9785  23.7952
    23.7952

     occupation numbers 
     1.0000   1.0000   1.0000   1.0000   1.0000   1.0000   1.0000   1.0000
     1.0000   1.0000   1.0000   1.0833   1.0833   0.0000   0.0000   0.0000
     0.0000

          k = 0.0000 0.0000 0.4167 (   932 PWs)   bands (ev):

  -115.3218 -69.5106 -69.5027 -69.5027  -7.0295   2.6860   3.3197   3.6457
     3.6457   4.0024   4.9742   9.3695   9.3695  12.9023  15.5331  23.5641
    23.5641

     occupation numbers 
     1.0000   1.0000   1.0000   1.0000   1.0000   1.0000   1.0000   1.0000
     1.0000   1.0000   1.0000   0.8670   0.8670   0.0000   0.0000   0.0000
     0.0000

          k = 0.0000 0.0000-0.5000 (   916 PWs)   bands (ev):

  -115.3217 -69.5110 -69.5026 -69.5026  -6.9657   2.5615   3.3253   3.6241
     3.6241   4.0040   4.9568   9.4264   9.4264  13.7212  14.5516  23.4756
    23.4756

     occupation numbers 
     1.0000   1.0000   1.0000   1.0000   1.0000   1.0000   1.0000   1.0000
     1.0000   1.0000   1.0000   0.6713   0.6713   0.0000   0.0000   0.0000
     0.0000

          k = 0.0000 0.0833 0.0833 (   929 PWs)   bands (ev):

  -115.3221 -69.5038 -69.5038 -69.5031  -7.6956   3.2579   3.2734   3.9271
     3.9453   3.9694   6.8618   8.4029   8.6975   9.7859  21.5692  22.0798
    24.4567

     occupation numbers 
     1.0000   1.0000   1.0000   1.0000   1.0000   1.0000   1.0000   1.0000
     1.0000   1.0000   1.0000   1.0000   1.0000   0.0054   0.0000   0.0000
     0.0000

          k = 0.0000 0.0833 0.1667 (   937 PWs)   bands (ev):

  -115.3221 -69.5053 -69.5037 -69.5031  -7.5615   3.2710   3.3034   3.8559
     3.8839   3.9690   6.1892   8.3878   8.8396  10.5792  20.2142  22.0290
    24.3391

     occupation numbers 
     1.0000   1.0000   1.0000   1.0000   1.0000   1.0000   1.0000   1.0000
     1.0000   1.0000   1.0000   1.0000   1.0004   0.0000   0.0000   0.0000
     0.0000

          k = 0.0000 0.0833 0.2500 (   935 PWs)   bands (ev):

  -115.3220 -69.5072 -69.5036 -69.5030  -7.3678   3.2349   3.3071   3.7723
     3.7974   3.9755   5.5242   8.5673   9.0336  11.3846  18.5882  22.2077
    24.1424

     occupation numbers 
     1.0000   1.0000   1.0000   1.0000   1.0000   1.0000   1.0000   1.0000
     1.0000   1.0000   1.0000   1.0000   1.0177   0.0000   0.0000   0.0000
     0.0000

          k = 0.0000 0.0833 0.3333 (   932 PWs)   bands (ev):

  -115.3218 -69.5091 -69.5034 -69.5028  -7.1600   3.0257   3.3252   3.6998
     3.7146   3.9826   5.1287   8.7958   9.2284  12.2235  17.0039  22.3722
    23.9057

     occupation numbers 
     1.0000   1.0000   1.0000   1.0000   1.0000   1.0000   1.0000   1.0000
     1.0000   1.0000   1.0000   1.0001   1.0825   0.0000   0.0000   0.0000
     0.0000

          k = 0.0000 0.0833 0.4167 (   922 PWs)   bands (ev):

  -115.3218 -69.5105 -69.5032 -69.5026  -6.9973   2.7624   3.3416   3.6445
     3.6563   3.9879   4.9952   8.9793   9.3722  13.1558  15.5520  22.4603
    23.7091

     occupation numbers 
     1.0000   1.0000   1.0000   1.0000   1.0000   1.0000   1.0000   1.0000
     1.0000   1.0000   1.0000   1.0073   0.8589   0.0000   0.0000   0.0000
     0.0000

          k = 0.0000 0.0833-0.5000 (   926 PWs)   bands (ev):

  -115.3217 -69.5110 -69.5032 -69.5026  -6.9352   2.6469   3.3479   3.6232
     3.6355   3.9898   4.9731   9.0494   9.4251  14.1019  14.4193  22.4821
    23.6326

     occupation numbers 
     1.0000   1.0000   1.0000   1.0000   1.0000   1.0000   1.0000   1.0000
     1.0000   1.0000   1.0000   1.0222   0.6763   0.0000   0.0000   0.0000
     0.0000

          k = 0.0000 0.1667 0.1667 (   941 PWs)   bands (ev):

  -115.3220 -69.5052 -69.5051 -69.5031  -7.4351   3.2760   3.3688   3.7866
     3.8674   3.9360   5.9966   7.9006   8.9534  11.3189  20.3077  20.3969
    24.3379

     occupation numbers 
     1.0000   1.0000   1.0000   1.0000   1.0000   1.0000   1.0000   1.0000
     1.0000   1.0000   1.0000   1.0000   1.0045   0.0000   0.0000   0.0000
     0.0000

          k = 0.0000 0.1667 0.2500 (   934 PWs)   bands (ev):

  -115.3219 -69.5071 -69.5050 -69.5029  -7.2531   3.2537   3.4078   3.7230
     3.8070   3.9318   5.5919   7.7938   9.1088  12.0429  18.6613  20.5194
    24.3020

     occupation numbers 
     1.0000   1.0000   1.0000   1.0000   1.0000   1.0000   1.0000   1.0000
     1.0000   1.0000   1.0000   1.0000   1.0451   0.0000   0.0000   0.0000
     0.0000

          k = 0.0000 0.1667 0.3333 (   934 PWs)   bands (ev):

  -115.3218 -69.5090 -69.5048 -69.5027  -7.0589   3.1383   3.4084   3.6854
     3.7367   3.9404   5.2280   7.9416   9.2646  12.7429  17.0847  20.7067
    24.2223

     occupation numbers 
     1.0000   1.0000   1.0000   1.0000   1.0000   1.0000   1.0000   1.0000
     1.0000   1.0000   1.0000   1.0000   1.0668   0.0000   0.0000   0.0000
     0.0000

          k = 0.0000 0.1667 0.4167 (   928 PWs)   bands (ev):

  -115.3217 -69.5104 -69.5047 -69.5025  -6.9076   2.9627   3.4151   3.6451
     3.6854   3.9484   5.0626   8.1282   9.3793  13.4630  15.7443  20.8545
    24.1345

     occupation numbers 
     1.0000   1.0000   1.0000   1.0000   1.0000   1.0000   1.0000   1.0000
     1.0000   1.0000   1.0000   1.0000   0.8366   0.0000   0.0000   0.0000
     0.0000

          k = 0.0000 0.1667-0.5000 (   924 PWs)   bands (ev):

  -115.3217 -69.5109 -69.5046 -69.5024  -6.8501   2.8792   3.4199   3.6251
     3.6668   3.9514   5.0265   8.2093   9.4214  14.0101  14.9708  20.9117
    24.0961

     occupation numbers 
     1.0000   1.0000   1.0000   1.0000   1.0000   1.0000   1.0000   1.0000
     1.0000   1.0000   1.0000   1.0000   0.6899   0.0000   0.0000   0.0000
     0.0000

          k = 0.0000 0.2500 0.2500 (   927 PWs)   bands (ev):

  -115.3218 -69.5070 -69.5068 -69.5026  -7.0889   3.2489   3.5327   3.6780
     3.8036   3.8903   5.5740   7.2194   9.2112  12.6217  18.3533  19.3682
    24.5096

     occupation numbers 
     1.0000   1.0000   1.0000   1.0000   1.0000   1.0000   1.0000   1.0000
     1.0000   1.0000   1.0000   1.0000   1.0831   0.0000   0.0000   0.0000
     0.0000

          k = 0.0000 0.2500 0.3333 (   924 PWs)   bands (ev):

  -115.3216 -69.5088 -69.5067 -69.5025  -6.9150   3.2222   3.5786   3.6769
     3.7651   3.8859   5.3770   7.0872   9.3136  13.0336  17.2057  19.3726
    24.6951

     occupation numbers 
     1.0000   1.0000   1.0000   1.0000   1.0000   1.0000   1.0000   1.0000
     1.0000   1.0000   1.0000   1.0000   1.0040   0.0000   0.0000   0.0000
     0.0000

          k = 0.0000 0.2500 0.4167 (   936 PWs)   bands (ev):

  -115.3216 -69.5103 -69.5067 -69.5024  -6.7806   3.1825   3.5751   3.6617
     3.7253   3.8952   5.1908   7.2038   9.3887  13.2599  16.3150  19.5466
    24.8083

     occupation numbers 
     1.0000   1.0000   1.0000   1.0000   1.0000   1.0000   1.0000   1.0000
     1.0000   1.0000   1.0000   1.0000   0.8057   0.0000   0.0000   0.0000
     0.0000

          k = 0.0000 0.2500-0.5000 (   944 PWs)   bands (ev):

  -115.3216 -69.5109 -69.5067 -69.5025  -6.7298   3.1616   3.5733   3.6411
     3.7100   3.8996   5.1323   7.2794   9.4162  13.3252  15.9964  19.6262
    24.8434

     occupation numbers 
     1.0000   1.0000   1.0000   1.0000   1.0000   1.0000   1.0000   1.0000
     1.0000   1.0000   1.0000   1.0000   0.7090   0.0000   0.0000   0.0000
     0.0000

          k = 0.0000 0.3333 0.3333 (   940 PWs)   bands (ev):

  -115.3216 -69.5088 -69.5088 -69.5024  -6.7638   3.2741   3.6661   3.7619
     3.7816   3.8443   5.4833   6.5123   9.3623  12.9461  17.2269  18.7119
    25.2261

     occupation numbers 
     1.0000   1.0000   1.0000   1.0000   1.0000   1.0000   1.0000   1.0000
     1.0000   1.0000   1.0000   1.0000   0.8883   0.0000   0.0000   0.0000
     0.0000

          k = 0.0000 0.3333 0.4167 (   937 PWs)   bands (ev):

  -115.3215 -69.5102 -69.5087 -69.5023  -6.6478   3.3183   3.6757   3.7652
     3.8371   3.8433   5.3932   6.4123   9.3978  12.6407  17.0824  18.6978
    25.0662

     occupation numbers 
     1.0000   1.0000   1.0000   1.0000   1.0000   1.0000   1.0000   1.0000
     1.0000   1.0000   1.0000   1.0000   0.7746   0.0000   0.0000   0.0000
     0.0000

          k = 0.0000 0.3333-0.5000 (   940 PWs)   bands (ev):

  -115.3215 -69.5108 -69.5086 -69.5023  -6.6042   3.3407   3.6821   3.7538
     3.8413   3.8485   5.3151   6.4619   9.4108  12.4761  17.0080  18.7786
    24.7937

     occupation numbers 
     1.0000   1.0000   1.0000   1.0000   1.0000   1.0000   1.0000   1.0000
     1.0000   1.0000   1.0000   1.0000   0.7287   0.0000   0.0000   0.0000
     0.0000

          k = 0.0000 0.4167 0.4167 (   934 PWs)   bands (ev):

  -115.3214 -69.5101 -69.5101 -69.5021  -6.5466   3.3936   3.7180   3.7900
     3.8106   4.0186   5.5822   5.9282   9.4044  12.0022  17.6945  18.3152
    24.2911

     occupation numbers 
     1.0000   1.0000   1.0000   1.0000   1.0000   1.0000   1.0000   1.0000
     1.0000   1.0000   1.0000   1.0000   0.7518   0.0000   0.0000   0.0000
     0.0000

          k = 0.0000 0.4167-0.5000 (   936 PWs)   bands (ev):

  -115.3214 -69.5106 -69.5100 -69.5021  -6.5086   3.4206   3.7415   3.7862
     3.8116   4.0744   5.5513   5.8876   9.4067  11.7295  17.8346  18.3229
    23.9568

     occupation numbers 
     1.0000   1.0000   1.0000   1.0000   1.0000   1.0000   1.0000   1.0000
     1.0000   1.0000   1.0000   1.0000   0.7434   0.0000   0.0000   0.0000
     0.0000

          k = 0.0000-0.5000-0.5000 (   952 PWs)   bands (ev):

  -115.3214 -69.5107 -69.5107 -69.5021  -6.4728   3.4446   3.7742   3.7981
     3.7981   4.1564   5.6747   5.6747   9.4052  11.4221  18.1813  18.1813
    23.5870

     occupation numbers 
     1.0000   1.0000   1.0000   1.0000   1.0000   1.0000   1.0000   1.0000
     1.0000   1.0000   1.0000   1.0000   0.7489   0.0000   0.0000   0.0000
     0.0000

          k = 0.0833 0.0833 0.0833 (   937 PWs)   bands (ev):

  -115.3221 -69.5038 -69.5038 -69.5038  -7.6488   3.2792   3.2792   3.9094
     3.9412   3.9412   6.6768   8.4629   8.4629  10.2104  21.6059  21.6059
    23.5561

     occupation numbers 
     1.0000   1.0000   1.0000   1.0000   1.0000   1.0000   1.0000   1.0000
     1.0000   1.0000   1.0000   1.0000   1.0000   0.0000   0.0000   0.0000
     0.0000

          k = 0.0833 0.0833 0.1667 (   939 PWs)   bands (ev):

  -115.3220 -69.5052 -69.5037 -69.5037  -7.5173   3.2952   3.3141   3.8506
     3.8667   3.9461   6.1499   8.3285   8.6264  10.9318  20.2525  21.7013
    23.3398

     occupation numbers 
     1.0000   1.0000   1.0000   1.0000   1.0000   1.0000   1.0000   1.0000
     1.0000   1.0000   1.0000   1.0000   1.0000   0.0000   0.0000   0.0000
     0.0000

          k = 0.0833 0.0833 0.2500 (   932 PWs)   bands (ev):

  -115.3219 -69.5071 -69.5035 -69.5035  -7.3274   3.2723   3.3179   3.7697
     3.7869   3.9552   5.5503   8.4271   8.8502  11.6785  18.6348  21.8130
    23.4030

     occupation numbers 
     1.0000   1.0000   1.0000   1.0000   1.0000   1.0000   1.0000   1.0000
     1.0000   1.0000   1.0000   1.0000   1.0005   0.0000   0.0000   0.0000
     0.0000

          k = 0.0833 0.0833 0.3333 (   931 PWs)   bands (ev):

  -115.3218 -69.5090 -69.5034 -69.5033  -7.1241   3.0795   3.3420   3.6766
     3.7379   3.9646   5.1626   8.6142   9.0759  12.4554  17.0513  21.8852
    23.4859

     occupation numbers 
     1.0000   1.0000   1.0000   1.0000   1.0000   1.0000   1.0000   1.0000
     1.0000   1.0000   1.0000   1.0000   1.0313   0.0000   0.0000   0.0000
     0.0000

          k = 0.0833 0.0833 0.4167 (   927 PWs)   bands (ev):

  -115.3217 -69.5105 -69.5032 -69.5032  -6.9651   2.8363   3.3617   3.6095
     3.6973   3.9716   5.0212   8.7794   9.2434  13.3276  15.6122  21.8980
    23.5314

     occupation numbers 
     1.0000   1.0000   1.0000   1.0000   1.0000   1.0000   1.0000   1.0000
     1.0000   1.0000   1.0000   1.0001   1.0786   0.0000   0.0000   0.0000
     0.0000

          k = 0.0833 0.0833-0.5000 (   928 PWs)   bands (ev):

  -115.3217 -69.5110 -69.5032 -69.5031  -6.9045   2.7286   3.3698   3.5846
     3.6805   3.9742   4.9957   8.8447   9.3053  14.3099  14.4253  21.8916
    23.5436

     occupation numbers 
     1.0000   1.0000   1.0000   1.0000   1.0000   1.0000   1.0000   1.0000
     1.0000   1.0000   1.0000   1.0004   1.0185   0.0000   0.0000   0.0000
     0.0000

          k = 0.0833 0.1667 0.1667 (   935 PWs)   bands (ev):

  -115.3220 -69.5051 -69.5051 -69.5035  -7.3929   3.3111   3.3739   3.7941
     3.8514   3.9042   5.9645   7.9728   8.6716  11.5756  20.2854  20.4583
    23.0694

     occupation numbers 
     1.0000   1.0000   1.0000   1.0000   1.0000   1.0000   1.0000   1.0000
     1.0000   1.0000   1.0000   1.0000   1.0000   0.0000   0.0000   0.0000
     0.0000

          k = 0.0833 0.1667 0.2500 (   934 PWs)   bands (ev):

  -115.3218 -69.5070 -69.5049 -69.5034  -7.2142   3.3001   3.4100   3.7254
     3.7991   3.9044   5.5971   7.8333   8.8566  12.2256  18.7372  20.4672
    23.2524

     occupation numbers 
     1.0000   1.0000   1.0000   1.0000   1.0000   1.0000   1.0000   1.0000
     1.0000   1.0000   1.0000   1.0000   1.0005   0.0000   0.0000   0.0000
     0.0000

          k = 0.0833 0.1667 0.3333 (   934 PWs)   bands (ev):

  -115.3217 -69.5090 -69.5048 -69.5032  -7.0237   3.1956   3.4139   3.6499
     3.7691   3.9177   5.2601   7.9283   9.0538  12.8584  17.1818  20.5362
    23.5101

     occupation numbers 
     1.0000   1.0000   1.0000   1.0000   1.0000   1.0000   1.0000   1.0000
     1.0000   1.0000   1.0000   1.0000   1.0235   0.0000   0.0000   0.0000
     0.0000

          k = 0.0833 0.1667 0.4167 (   928 PWs)   bands (ev):

  -115.3217 -69.5104 -69.5046 -69.5031  -6.8755   3.0283   3.4287   3.5818
     3.7449   3.9291   5.1030   8.0768   9.2026  13.5073  15.8780  20.5577
    23.7203

     occupation numbers 
     1.0000   1.0000   1.0000   1.0000   1.0000   1.0000   1.0000   1.0000
     1.0000   1.0000   1.0000   1.0000   1.0821   0.0000   0.0000   0.0000
     0.0000

          k = 0.0833 0.1667-0.5000 (   934 PWs)   bands (ev):

  -115.3216 -69.5109 -69.5047 -69.5031  -6.8192   2.9486   3.4387   3.5528
     3.7323   3.9334   5.0683   8.1439   9.2581  13.9604  15.1864  20.5579
    23.8032

     occupation numbers 
     1.0000   1.0000   1.0000   1.0000   1.0000   1.0000   1.0000   1.0000
     1.0000   1.0000   1.0000   1.0000   1.0713   0.0000   0.0000   0.0000
     0.0000

          k = 0.0833 0.2500 0.2500 (   933 PWs)   bands (ev):

  -115.3217 -69.5070 -69.5068 -69.5032  -7.0522   3.2956   3.5292   3.6757
     3.8106   3.8581   5.5672   7.3118   8.9806  12.7200  18.5049  19.2794
    23.5034

     occupation numbers 
     1.0000   1.0000   1.0000   1.0000   1.0000   1.0000   1.0000   1.0000
     1.0000   1.0000   1.0000   1.0000   1.0074   0.0000   0.0000   0.0000
     0.0000

          k = 0.0833 0.2500 0.3333 (   927 PWs)   bands (ev):

  -115.3216 -69.5088 -69.5067 -69.5030  -6.8808   3.2700   3.5726   3.6333
     3.8009   3.8638   5.4026   7.1584   9.1183  13.0770  17.3305  19.2412
    23.8636

     occupation numbers 
     1.0000   1.0000   1.0000   1.0000   1.0000   1.0000   1.0000   1.0000
     1.0000   1.0000   1.0000   1.0000   1.0495   0.0000   0.0000   0.0000
     0.0000

          k = 0.0833 0.2500 0.4167 (   933 PWs)   bands (ev):

  -115.3216 -69.5103 -69.5066 -69.5029  -6.7484   3.2314   3.5683   3.5801
     3.7876   3.8810   5.2537   7.2360   9.2235  13.2816  16.4233  19.3176
    24.2061

     occupation numbers 
     1.0000   1.0000   1.0000   1.0000   1.0000   1.0000   1.0000   1.0000
     1.0000   1.0000   1.0000   1.0000   1.0831   0.0000   0.0000   0.0000
     0.0000

          k = 0.0833 0.2500-0.5000 (   930 PWs)   bands (ev):

  -115.3215 -69.5108 -69.5066 -69.5028  -6.6983   3.2109   3.5432   3.5751
     3.7767   3.8881   5.2078   7.2956   9.2631  13.3450  16.0964  19.3455
    24.3659

     occupation numbers 
     1.0000   1.0000   1.0000   1.0000   1.0000   1.0000   1.0000   1.0000
     1.0000   1.0000   1.0000   1.0000   1.0679   0.0000   0.0000   0.0000
     0.0000

          k = 0.0833 0.3333 0.3333 (   932 PWs)   bands (ev):

  -115.3215 -69.5088 -69.5087 -69.5028  -6.7306   3.3096   3.6231   3.6917
     3.8187   3.8626   5.5148   6.6322   9.1946  12.9815  17.2992  18.5608
    24.3347

     occupation numbers 
     1.0000   1.0000   1.0000   1.0000   1.0000   1.0000   1.0000   1.0000
     1.0000   1.0000   1.0000   1.0000   1.0806   0.0000   0.0000   0.0000
     0.0000

          k = 0.0833 0.3333 0.4167 (   936 PWs)   bands (ev):

  -115.3215 -69.5102 -69.5086 -69.5027  -6.6156   3.3515   3.5955   3.7100
     3.8127   3.9125   5.4828   6.5136   9.2540  12.6984  17.0793  18.4954
    24.7700

     occupation numbers 
     1.0000   1.0000   1.0000   1.0000   1.0000   1.0000   1.0000   1.0000
     1.0000   1.0000   1.0000   1.0000   1.0737   0.0000   0.0000   0.0000
     0.0000

          k = 0.0833 0.3333-0.5000 (   932 PWs)   bands (ev):

  -115.3214 -69.5107 -69.5086 -69.5027  -6.5722   3.3804   3.5673   3.7198
     3.7986   3.9283   5.4362   6.5460   9.2766  12.5451  16.9838  18.5338
    25.1241

     occupation numbers 
     1.0000   1.0000   1.0000   1.0000   1.0000   1.0000   1.0000   1.0000
     1.0000   1.0000   1.0000   1.0000   1.0562   0.0000   0.0000   0.0000
     0.0000

          k = 0.0833 0.4167 0.4167 (   935 PWs)   bands (ev):

  -115.3214 -69.5100 -69.5100 -69.5026  -6.5142   3.4282   3.6243   3.7095
     3.8021   4.0421   5.7010   6.0818   9.2784  12.0857  17.5760  18.1208
    24.4596

     occupation numbers 
     1.0000   1.0000   1.0000   1.0000   1.0000   1.0000   1.0000   1.0000
     1.0000   1.0000   1.0000   1.0000   1.0544   0.0000   0.0000   0.0000
     0.0000

          k = 0.0833 0.4167-0.5000 (   938 PWs)   bands (ev):

  -115.3214 -69.5106 -69.5100 -69.5026  -6.4762   3.4641   3.6294   3.7147
     3.7803   4.0906   5.7125   6.0336   9.2878  11.8204  17.6870  18.1034
    24.1883

     occupation numbers 
     1.0000   1.0000   1.0000   1.0000   1.0000   1.0000   1.0000   1.0000
     1.0000   1.0000   1.0000   1.0000   1.0437   0.0000   0.0000   0.0000
     0.0000

          k = 0.0833-0.5000-0.5000 (   936 PWs)   bands (ev):

  -115.3213 -69.5105 -69.5105 -69.5026  -6.4402   3.4924   3.7004   3.7004
     3.7282   4.1573   5.8508   5.8508   9.2920  11.5179  17.9716  17.9716
    23.8566

     occupation numbers 
     1.0000   1.0000   1.0000   1.0000   1.0000   1.0000   1.0000   1.0000
     1.0000   1.0000   1.0000   1.0000   1.0382   0.0000   0.0000   0.0000
     0.0000

          k = 0.1667 0.1667 0.1667 (   943 PWs)   bands (ev):

  -115.3219 -69.5051 -69.5051 -69.5049  -7.2747   3.3881   3.3881   3.8088
     3.8208   3.8208   5.8391   8.1698   8.1698  12.0788  20.2096  20.2096
    21.8941

     occupation numbers 
     1.0000   1.0000   1.0000   1.0000   1.0000   1.0000   1.0000   1.0000
     1.0000   1.0000   1.0000   1.0000   1.0000   0.0000   0.0000   0.0000
     0.0000

          k = 0.1667 0.1667 0.2500 (   932 PWs)   bands (ev):

  -115.3218 -69.5069 -69.5048 -69.5048  -7.1052   3.4083   3.4180   3.7140
     3.7959   3.8428   5.5955   7.8458   8.4410  12.5857  18.8838  20.0669
    22.0655

     occupation numbers 
     1.0000   1.0000   1.0000   1.0000   1.0000   1.0000   1.0000   1.0000
     1.0000   1.0000   1.0000   1.0000   1.0000   0.0000   0.0000   0.0000
     0.0000

          k = 0.1667 0.1667 0.3333 (   923 PWs)   bands (ev):

  -115.3216 -69.5088 -69.5046 -69.5045  -6.9252   3.3299   3.4306   3.6127
     3.8083   3.8659   5.3485   7.7716   8.7176  13.0615  17.4093  19.8714
    22.6825

     occupation numbers 
     1.0000   1.0000   1.0000   1.0000   1.0000   1.0000   1.0000   1.0000
     1.0000   1.0000   1.0000   1.0000   1.0000   0.0000   0.0000   0.0000
     0.0000

          k = 0.1667 0.1667 0.4167 (   929 PWs)   bands (ev):

  -115.3216 -69.5103 -69.5046 -69.5045  -6.7857   3.1921   3.4530   3.5362
     3.8012   3.8845   5.2250   7.8185   8.9257  13.5172  16.2286  19.6909
    23.2685

     occupation numbers 
     1.0000   1.0000   1.0000   1.0000   1.0000   1.0000   1.0000   1.0000
     1.0000   1.0000   1.0000   1.0000   1.0026   0.0000   0.0000   0.0000
     0.0000

          k = 0.1667 0.1667-0.5000 (   926 PWs)   bands (ev):

  -115.3215 -69.5108 -69.5045 -69.5044  -6.7329   3.1264   3.4719   3.4983
     3.7920   3.8921   5.1976   7.8522   9.0034  13.7760  15.7052  19.6166
    23.5201

     occupation numbers 
     1.0000   1.0000   1.0000   1.0000   1.0000   1.0000   1.0000   1.0000
     1.0000   1.0000   1.0000   1.0000   1.0110   0.0000   0.0000   0.0000
     0.0000

          k = 0.1667 0.2500 0.2500 (   936 PWs)   bands (ev):

  -115.3217 -69.5069 -69.5067 -69.5046  -6.9496   3.4027   3.5115   3.6749
     3.7851   3.8337   5.5527   7.5633   8.4550  12.9151  18.8088  19.0167
    21.9732

     occupation numbers 
     1.0000   1.0000   1.0000   1.0000   1.0000   1.0000   1.0000   1.0000
     1.0000   1.0000   1.0000   1.0000   1.0000   0.0000   0.0000   0.0000
     0.0000

          k = 0.1667 0.2500 0.3333 (   931 PWs)   bands (ev):

  -115.3216 -69.5087 -69.5066 -69.5045  -6.7852   3.3715   3.5124   3.6207
     3.8177   3.8467   5.4786   7.3449   8.6670  13.1589  17.5826  18.8316
    22.5248

     occupation numbers 
     1.0000   1.0000   1.0000   1.0000   1.0000   1.0000   1.0000   1.0000
     1.0000   1.0000   1.0000   1.0000   1.0000   0.0000   0.0000   0.0000
     0.0000

          k = 0.1667 0.2500 0.4167 (   937 PWs)   bands (ev):

  -115.3215 -69.5102 -69.5066 -69.5044  -6.6586   3.3323   3.4495   3.6009
     3.8244   3.8609   5.4356   7.3041   8.8513  13.3159  16.6539  18.6568
    23.2030

     occupation numbers 
     1.0000   1.0000   1.0000   1.0000   1.0000   1.0000   1.0000   1.0000
     1.0000   1.0000   1.0000   1.0000   1.0005   0.0000   0.0000   0.0000
     0.0000

          k = 0.1667 0.2500-0.5000 (   938 PWs)   bands (ev):

  -115.3215 -69.5108 -69.5065 -69.5043  -6.6107   3.3135   3.4149   3.5990
     3.8106   3.8740   5.4279   7.3139   8.9230  13.3734  16.3128  18.5779
    23.5397

     occupation numbers 
     1.0000   1.0000   1.0000   1.0000   1.0000   1.0000   1.0000   1.0000
     1.0000   1.0000   1.0000   1.0000   1.0024   0.0000   0.0000   0.0000
     0.0000

          k = 0.1667 0.3333 0.3333 (   934 PWs)   bands (ev):

  -115.3215 -69.5086 -69.5086 -69.5043  -6.6382   3.3523   3.5471   3.6210
     3.8384   3.8806   5.6264   6.9538   8.7794  13.0712  17.3967  18.1305
    22.8446

     occupation numbers 
     1.0000   1.0000   1.0000   1.0000   1.0000   1.0000   1.0000   1.0000
     1.0000   1.0000   1.0000   1.0000   1.0001   0.0000   0.0000   0.0000
     0.0000

          k = 0.1667 0.3333 0.4167 (   946 PWs)   bands (ev):

  -115.3214 -69.5101 -69.5086 -69.5043  -6.5255   3.3582   3.4920   3.6325
     3.7983   3.9511   5.7327   6.7923   8.8980  12.8588  17.0007  17.9196
    23.3927

     occupation numbers 
     1.0000   1.0000   1.0000   1.0000   1.0000   1.0000   1.0000   1.0000
     1.0000   1.0000   1.0000   1.0000   1.0014   0.0000   0.0000   0.0000
     0.0000

          k = 0.1667 0.3333-0.5000 (   946 PWs)   bands (ev):

  -115.3214 -69.5106 -69.5085 -69.5043  -6.4831   3.3988   3.4225   3.6465
     3.7707   3.9746   5.7639   6.7751   8.9472  12.7406  16.8608  17.8515
    23.7315

     occupation numbers 
     1.0000   1.0000   1.0000   1.0000   1.0000   1.0000   1.0000   1.0000
     1.0000   1.0000   1.0000   1.0000   1.0040   0.0000   0.0000   0.0000
     0.0000

          k = 0.1667 0.4167 0.4167 (   944 PWs)   bands (ev):

  -115.3213 -69.5100 -69.5100 -69.5042  -6.4239   3.3876   3.5080   3.6182
     3.7285   4.0664   6.0244   6.4792   8.9606  12.3343  17.1919  17.5778
    23.7223

     occupation numbers 
     1.0000   1.0000   1.0000   1.0000   1.0000   1.0000   1.0000   1.0000
     1.0000   1.0000   1.0000   1.0000   1.0052   0.0000   0.0000   0.0000
     0.0000

          k = 0.1667 0.4167-0.5000 (   948 PWs)   bands (ev):

  -115.3213 -69.5105 -69.5100 -69.5042  -6.3858   3.4343   3.4732   3.6321
     3.6762   4.1084   6.1227   6.4136   8.9879  12.0957  17.2476  17.4911
    23.9556

     occupation numbers 
     1.0000   1.0000   1.0000   1.0000   1.0000   1.0000   1.0000   1.0000
     1.0000   1.0000   1.0000   1.0000   1.0085   0.0000   0.0000   0.0000
     0.0000

          k = 0.1667-0.5000-0.5000 (   944 PWs)   bands (ev):

  -115.3213 -69.5104 -69.5104 -69.5042  -6.3493   3.4880   3.4880   3.5957
     3.6234   4.1595   6.2903   6.2903   9.0054  11.8128  17.3893  17.3893
    24.0593

     occupation numbers 
     1.0000   1.0000   1.0000   1.0000   1.0000   1.0000   1.0000   1.0000
     1.0000   1.0000   1.0000   1.0000   1.0114   0.0000   0.0000   0.0000
     0.0000

          k = 0.2500 0.2500 0.2500 (   946 PWs)   bands (ev):

  -115.3216 -69.5067 -69.5067 -69.5066  -6.8034   3.4629   3.4629   3.7236
     3.7236   3.8570   5.5571   7.9105   7.9105  13.0866  18.6098  18.6098
    21.2610

     occupation numbers 
     1.0000   1.0000   1.0000   1.0000   1.0000   1.0000   1.0000   1.0000
     1.0000   1.0000   1.0000   1.0000   1.0000   0.0000   0.0000   0.0000
     0.0000

          k = 0.2500 0.2500 0.3333 (   944 PWs)   bands (ev):

  -115.3215 -69.5086 -69.5066 -69.5065  -6.6494   3.3900   3.4321   3.6984
     3.8131   3.8440   5.6219   7.5165   8.2696  13.2059  17.6589  18.1472
    21.7210

     occupation numbers 
     1.0000   1.0000   1.0000   1.0000   1.0000   1.0000   1.0000   1.0000
     1.0000   1.0000   1.0000   1.0000   1.0000   0.0000   0.0000   0.0000
     0.0000

          k = 0.2500 0.2500 0.4167 (   945 PWs)   bands (ev):

  -115.3214 -69.5101 -69.5065 -69.5064  -6.5311   3.3297   3.3770   3.6930
     3.7919   3.8795   5.7284   7.3097   8.5454  13.2806  16.8171  17.7727
    22.4656

     occupation numbers 
     1.0000   1.0000   1.0000   1.0000   1.0000   1.0000   1.0000   1.0000
     1.0000   1.0000   1.0000   1.0000   1.0000   0.0000   0.0000   0.0000
     0.0000

          k = 0.2500 0.2500-0.5000 (   936 PWs)   bands (ev):

  -115.3214 -69.5105 -69.5064 -69.5063  -6.4865   3.3072   3.3499   3.6926
     3.7660   3.9009   5.7815   7.2503   8.6501  13.3084  16.4982  17.6279
    22.8404

     occupation numbers 
     1.0000   1.0000   1.0000   1.0000   1.0000   1.0000   1.0000   1.0000
     1.0000   1.0000   1.0000   1.0000   1.0000   0.0000   0.0000   0.0000
     0.0000

          k = 0.2500 0.3333 0.3333 (   945 PWs)   bands (ev):

  -115.3214 -69.5085 -69.5085 -69.5064  -6.5068   3.3115   3.3873   3.7460
     3.7836   3.8938   5.8517   7.3937   8.2897  13.1748  17.2653  17.5018
    21.6958

     occupation numbers 
     1.0000   1.0000   1.0000   1.0000   1.0000   1.0000   1.0000   1.0000
     1.0000   1.0000   1.0000   1.0000   1.0000   0.0000   0.0000   0.0000
     0.0000

          k = 0.2500 0.3333 0.4167 (   943 PWs)   bands (ev):

  -115.3213 -69.5099 -69.5084 -69.5063  -6.3976   3.2581   3.3411   3.6862
     3.7665   3.9772   6.1091   7.1742   8.4926  13.0748  16.7457  17.1021
    22.0580

     occupation numbers 
     1.0000   1.0000   1.0000   1.0000   1.0000   1.0000   1.0000   1.0000
     1.0000   1.0000   1.0000   1.0000   1.0000   0.0000   0.0000   0.0000
     0.0000

          k = 0.2500 0.3333-0.5000 (   946 PWs)   bands (ev):

  -115.3213 -69.5104 -69.5084 -69.5063  -6.3565   3.2431   3.3185   3.6456
     3.7692   4.0071   6.2337   7.0797   8.5849  13.0127  16.5789  16.9207
    22.2750

     occupation numbers 
     1.0000   1.0000   1.0000   1.0000   1.0000   1.0000   1.0000   1.0000
     1.0000   1.0000   1.0000   1.0000   1.0000   0.0000   0.0000   0.0000
     0.0000

          k = 0.2500 0.4167 0.4167 (   950 PWs)   bands (ev):

  -115.3212 -69.5099 -69.5098 -69.5063  -6.2956   3.2322   3.3023   3.5565
     3.7902   4.0805   6.4832   7.0070   8.5793  12.7364  16.5564  16.8057
    21.8933

     occupation numbers 
     1.0000   1.0000   1.0000   1.0000   1.0000   1.0000   1.0000   1.0000
     1.0000   1.0000   1.0000   1.0000   1.0000   0.0000   0.0000   0.0000
     0.0000

          k = 0.2500 0.4167-0.5000 (   950 PWs)   bands (ev):

  -115.3212 -69.5103 -69.5098 -69.5062  -6.2572   3.2382   3.2826   3.4918
     3.7966   4.1194   6.6672   6.9194   8.6306  12.5577  16.5794  16.6248
    21.8580

     occupation numbers 
     1.0000   1.0000   1.0000   1.0000   1.0000   1.0000   1.0000   1.0000
     1.0000   1.0000   1.0000   1.0000   1.0000   0.0000   0.0000   0.0000
     0.0000

          k = 0.2500-0.5000-0.5000 (   944 PWs)   bands (ev):

  -115.3211 -69.5103 -69.5103 -69.5061  -6.2200   3.2685   3.2685   3.3982
     3.8040   4.1624   6.8592   6.8592   8.6607  12.3264  16.5680  16.5680
    21.6967

     occupation numbers 
     1.0000   1.0000   1.0000   1.0000   1.0000   1.0000   1.0000   1.0000
     1.0000   1.0000   1.0000   1.0000   1.0000   0.0000   0.0000   0.0000
     0.0000

          k = 0.3333 0.3333 0.3333 (   943 PWs)   bands (ev):

  -115.3213 -69.5084 -69.5083 -69.5083  -6.3689   3.2512   3.2512   3.6515
     3.9041   3.9041   6.1893   7.8530   7.8530  13.2414  16.8242  16.8242
    21.1362

     occupation numbers 
     1.0000   1.0000   1.0000   1.0000   1.0000   1.0000   1.0000   1.0000
     1.0000   1.0000   1.0000   1.0000   1.0000   0.0000   0.0000   0.0000
     0.0000

          k = 0.3333 0.3333 0.4167 (   944 PWs)   bands (ev):

  -115.3212 -69.5098 -69.5083 -69.5082  -6.2634   3.1620   3.2117   3.5178
     3.9110   4.0130   6.5618   7.5135   8.2138  13.2417  16.2918  16.3671
    20.9711

     occupation numbers 
     1.0000   1.0000   1.0000   1.0000   1.0000   1.0000   1.0000   1.0000
     1.0000   1.0000   1.0000   1.0000   1.0000   0.0000   0.0000   0.0000
     0.0000

          k = 0.3333 0.3333-0.5000 (   954 PWs)   bands (ev):

  -115.3212 -69.5104 -69.5083 -69.5082  -6.2237   3.1310   3.1998   3.4598
     3.9134   4.0514   6.7716   7.3392   8.3536  13.2237  16.0876  16.1883
    20.9452

     occupation numbers 
     1.0000   1.0000   1.0000   1.0000   1.0000   1.0000   1.0000   1.0000
     1.0000   1.0000   1.0000   1.0000   1.0000   0.0000   0.0000   0.0000
     0.0000

          k = 0.3333 0.4167 0.4167 (   950 PWs)   bands (ev):

  -115.3211 -69.5097 -69.5097 -69.5082  -6.1608   3.1038   3.1367   3.3524
     3.9655   4.0893   6.9955   7.5558   8.2430  13.2409  15.8388  15.9887
    20.2114

     occupation numbers 
     1.0000   1.0000   1.0000   1.0000   1.0000   1.0000   1.0000   1.0000
     1.0000   1.0000   1.0000   1.0000   1.0000   0.0000   0.0000   0.0000
     0.0000

          k = 0.3333 0.4167-0.5000 (   942 PWs)   bands (ev):

  -115.3211 -69.5102 -69.5096 -69.5081  -6.1222   3.0840   3.1206   3.2773
     3.9742   4.1276   7.2456   7.4393   8.3294  13.1835  15.7232  15.8417
    19.9259

     occupation numbers 
     1.0000   1.0000   1.0000   1.0000   1.0000   1.0000   1.0000   1.0000
     1.0000   1.0000   1.0000   1.0000   1.0000   0.0000   0.0000   0.0000
     0.0000

          k = 0.3333-0.5000-0.5000 (   940 PWs)   bands (ev):

  -115.3210 -69.5101 -69.5101 -69.5080  -6.0840   3.0931   3.0931   3.1814
     3.9858   4.1654   7.4462   7.4462   8.3626  13.0781  15.7025  15.7025
    19.5177

     occupation numbers 
     1.0000   1.0000   1.0000   1.0000   1.0000   1.0000   1.0000   1.0000
     1.0000   1.0000   1.0000   1.0000   1.0000   0.0000   0.0000   0.0000
     0.0000

          k = 0.4167 0.4167 0.4167 (   940 PWs)   bands (ev):

  -115.3210 -69.5095 -69.5095 -69.5095  -6.0575   3.0316   3.0316   3.1750
     4.0944   4.0944   7.4538   7.9939   7.9939  13.6790  15.3481  15.3481
    18.9097

     occupation numbers 
     1.0000   1.0000   1.0000   1.0000   1.0000   1.0000   1.0000   1.0000
     1.0000   1.0000   1.0000   1.0000   1.0000   0.0000   0.0000   0.0000
     0.0000

          k = 0.4167 0.4167-0.5000 (   942 PWs)   bands (ev):

  -115.3210 -69.5101 -69.5095 -69.5095  -6.0187   2.9957   3.0176   3.0962
     4.0962   4.1414   7.7232   7.8226   8.1668  13.8193  15.1006  15.2517
    18.3677

     occupation numbers 
     1.0000   1.0000   1.0000   1.0000   1.0000   1.0000   1.0000   1.0000
     1.0000   1.0000   1.0000   1.0000   1.0000   0.0000   0.0000   0.0000
     0.0000

          k = 0.4167-0.5000-0.5000 (   940 PWs)   bands (ev):

  -115.3210 -69.5100 -69.5100 -69.5094  -5.9798   2.9826   2.9826   3.0103
     4.1195   4.1676   7.9170   7.9170   8.1698  14.0416  15.0223  15.0223
    17.6596

     occupation numbers 
     1.0000   1.0000   1.0000   1.0000   1.0000   1.0000   1.0000   1.0000
     1.0000   1.0000   1.0000   1.0000   1.0000   0.0000   0.0000   0.0000
     0.0000

          k =-0.5000-0.5000-0.5000 (   968 PWs)   bands (ev):

  -115.3210 -69.5102 -69.5102 -69.5102  -5.9406   2.9449   2.9449   2.9449
     4.1683   4.1683   8.1041   8.1041   8.1041  14.7582  14.7582  14.7582
    16.6386

     occupation numbers 
     1.0000   1.0000   1.0000   1.0000   1.0000   1.0000   1.0000   1.0000
     1.0000   1.0000   1.0000   1.0000   1.0000   0.0000   0.0000   0.0000
     0.0000

     the Fermi energy is     9.5000 ev

!    total energy              =    -503.15988300 Ry
     estimated scf accuracy    <          7.1E-10 Ry
     smearing contrib. (-TS)   =       0.00120050 Ry
     internal energy E=F+TS    =    -503.16108350 Ry

     The total energy is F=E-TS. E is the sum of the following terms:
     one-electron contribution =    -379.71260673 Ry
     hartree contribution      =     200.72317385 Ry
     xc contribution           =     -49.51932755 Ry
     ewald contribution        =    -265.11579577 Ry
     one-center paw contrib.   =      -9.53652730 Ry
      -> PAW hartree energy AE =      24.68283481 Ry
      -> PAW hartree energy PS =     -24.57495804 Ry
      -> PAW xc energy AE      =     -16.44790349 Ry
      -> PAW xc energy PS      =       6.80349943 Ry
      -> total E_H with PAW    =     200.83105061 Ry
      -> total E_XC with PAW   =     -59.16373161 Ry

     convergence has been achieved in  10 iterations

     Forces acting on atoms (cartesian axes, Ry/au):

     atom    1 type  2   force =     0.00000000    0.00000000    0.00000000
     atom    2 type  1   force =     0.00000000    0.00000000    0.00000000
     The non-local contrib.  to forces
     atom    1 type  2   force =     0.00000000    0.00000000    0.00000000
     atom    2 type  1   force =     0.00000000    0.00000000    0.00000000
     The ionic contribution  to forces
     atom    1 type  2   force =    -0.00000000   -0.00000000   -0.00000000
     atom    2 type  1   force =     0.00000000    0.00000000    0.00000000
     The local contribution  to forces
     atom    1 type  2   force =     0.00000000    0.00000000    0.00000000
     atom    2 type  1   force =     0.00000000    0.00000000    0.00000000
     The core correction contribution to forces
     atom    1 type  2   force =     0.00000000    0.00000000    0.00000000
     atom    2 type  1   force =     0.00000000    0.00000000    0.00000000
     The Hubbard contrib.    to forces
     atom    1 type  2   force =     0.00000000    0.00000000    0.00000000
     atom    2 type  1   force =     0.00000000    0.00000000    0.00000000
     The SCF correction term to forces
     atom    1 type  2   force =     0.00000000    0.00000000    0.00000000
     atom    2 type  1   force =    -0.00000000   -0.00000000    0.00000000

     Total force =     0.000000     Total SCF correction =     0.000000


     Computing stress (Cartesian axis) and pressure

          total   stress  (Ry/bohr**3)                   (kbar)     P=     -192.42
  -0.00130803   0.00000000   0.00000000         -192.42        0.00        0.00
   0.00000000  -0.00130803   0.00000000            0.00     -192.42        0.00
   0.00000000   0.00000000  -0.00130803            0.00        0.00     -192.42

     kinetic stress (kbar)  35394.22      0.00      0.00
                                0.00  35394.22      0.00
                                0.00      0.00  35394.22

     local   stress (kbar)    209.91     -0.00     -0.00
                               -0.00    209.91     -0.00
                               -0.00     -0.00    209.91

     nonloc. stress (kbar)   -826.04      0.00      0.00
                                0.00   -826.04      0.00
                                0.00      0.00   -826.04

     hartree stress (kbar)  62781.87      0.00      0.00
                                0.00  62781.87      0.00
                                0.00      0.00  62781.87

     exc-cor stress (kbar) -14431.89      0.00      0.00
                                0.00 -14431.89     -0.00
                                0.00     -0.00 -14431.89

     corecor stress (kbar)   -398.00     -0.00     -0.00
                               -0.00   -398.00      0.00
                               -0.00      0.00   -398.00

     ewald   stress (kbar) -82922.49     -0.00     -0.00
                               -0.00 -82922.49     -0.00
                               -0.00     -0.00 -82922.49

     hubbard stress (kbar)      0.00      0.00      0.00
                                0.00      0.00      0.00
                                0.00      0.00      0.00

     DFT-D   stress (kbar)      0.00      0.00      0.00
                                0.00      0.00      0.00
                                0.00      0.00      0.00

     XDM     stress (kbar)      0.00      0.00      0.00
                                0.00      0.00      0.00
                                0.00      0.00      0.00

     dft-nl  stress (kbar)      0.00      0.00      0.00
                                0.00      0.00      0.00
                                0.00      0.00      0.00

     TS-vdW  stress (kbar)      0.00      0.00      0.00
                                0.00      0.00      0.00
                                0.00      0.00      0.00

     MDB     stress (kbar)      0.00      0.00      0.00
                                0.00      0.00      0.00
                                0.00      0.00      0.00

     3D-RISM stress (kbar)      0.00      0.00      0.00
                                0.00      0.00      0.00
                                0.00      0.00      0.00


     Writing all to output data dir ./temp_cubic/aiida.save/ :
     XML data file, charge density, pseudopotentials, collected wavefunctions

     init_run     :     39.87s CPU      1.91s WALL (       1 calls)
     electrons    :   1048.32s CPU     44.71s WALL (       1 calls)
     forces       :     11.81s CPU      0.53s WALL (       1 calls)
     stress       :    200.85s CPU      8.80s WALL (       1 calls)

     Called by init_run:
     wfcinit      :     36.10s CPU      1.50s WALL (       1 calls)
     wfcinit:atom :      0.96s CPU      0.04s WALL (      84 calls)
     wfcinit:wfcr :     32.52s CPU      1.39s WALL (      84 calls)
     potinit      :      1.09s CPU      0.08s WALL (       1 calls)
     hinit0       :      1.37s CPU      0.23s WALL (       1 calls)

     Called by electrons:
     c_bands      :    867.63s CPU     36.48s WALL (      10 calls)
     sum_band     :    167.47s CPU      7.41s WALL (      10 calls)
     v_of_rho     :      2.30s CPU      0.11s WALL (      11 calls)
     v_h          :      0.48s CPU      0.02s WALL (      11 calls)
     v_xc         :      2.25s CPU      0.11s WALL (      13 calls)
     newd         :      6.85s CPU      0.55s WALL (      11 calls)
     PAW_pot      :      3.70s CPU      0.17s WALL (      11 calls)
     mix_rho      :      0.27s CPU      0.03s WALL (      10 calls)

     Called by c_bands:
     init_us_2    :     14.84s CPU      0.63s WALL (    1932 calls)
     cegterg      :    824.87s CPU     34.79s WALL (     840 calls)

     Called by sum_band:
     sum_band:wei :      0.72s CPU      0.02s WALL (      10 calls)
     sum_band:loo :    161.46s CPU      6.78s WALL (      10 calls)
     sum_band:buf :      1.38s CPU      0.02s WALL (     840 calls)
     sum_band:ini :      4.82s CPU      0.23s WALL (     840 calls)
     sum_band:cal :     14.93s CPU      0.54s WALL (     840 calls)
     sum_band:bec :      5.14s CPU      0.22s WALL (     840 calls)
     addusdens    :      4.88s CPU      0.54s WALL (      10 calls)
                                        0.00s GPU  (      10 calls)
     addusd:skk   :      0.01s CPU      0.00s WALL (      20 calls)
                                        0.00s GPU  (      20 calls)

     Called by *egterg:
     cdiaghg      :     20.75s CPU      0.74s WALL (    2653 calls)
     cegterg:over :     43.51s CPU      1.91s WALL (    1813 calls)
     cegterg:upda :     31.58s CPU      1.46s WALL (    1813 calls)
     cegterg:last :     84.80s CPU      2.86s WALL (    1658 calls)
     h_psi        :    600.24s CPU     25.94s WALL (    2737 calls)
     s_psi        :     35.24s CPU      1.49s WALL (    2737 calls)
     g_psi        :      9.69s CPU      0.34s WALL (    1813 calls)

     Called by h_psi:
     h_psi:calbec :     38.12s CPU      1.40s WALL (    2737 calls)
     vloc_psi     :    518.53s CPU     22.63s WALL (    2737 calls)
     add_vuspsi   :     32.85s CPU      1.50s WALL (    2737 calls)

     General routines
     calbec       :     59.26s CPU      2.20s WALL (    3997 calls)
     fft          :      1.94s CPU      0.08s WALL (     166 calls)
     ffts         :      0.01s CPU      0.01s WALL (      21 calls)
     fftw         :    290.90s CPU     12.71s WALL (   84082 calls)
     interpolate  :      0.24s CPU      0.01s WALL (      11 calls)

     Parallel routines

     PAW routines
     PAW_pot      :      3.70s CPU      0.17s WALL (      11 calls)
     PAW_symme    :      0.00s CPU      0.00s WALL (      21 calls)

     PWSCF        :  21m53.46s CPU     56.97s WALL


   This run was terminated on:  13:38:24   8Jun2024            

=------------------------------------------------------------------------------=
   JOB DONE.
=------------------------------------------------------------------------------=
