
     Program PWSCF v.7.3.1 starts on  7Jun2024 at 21:32:41 

     This program is part of the open-source Quantum ESPRESSO suite
     for quantum simulation of materials; please cite
         "P. Giannozzi et al., J. Phys.:Condens. Matter 21 395502 (2009);
         "P. Giannozzi et al., J. Phys.:Condens. Matter 29 465901 (2017);
         "P. Giannozzi et al., J. Chem. Phys. 152 154105 (2020);
          URL http://www.quantum-espresso.org", 
     in publications or presentations arising from this work. More details at
     http://www.quantum-espresso.org/quote

     Parallel version (MPI & OpenMP), running on      24 processor cores
     Number of MPI processes:                 1
     Threads/MPI process:                    24

     MPI processes distributed on     1 nodes
     4538 MiB available memory on the printing compute node when the environment starts

     Waiting for input...
     Reading input from standard input

     Current dimensions of program PWSCF are:
     Max number of different atomic species (ntypx) = 10
     Max number of k-points (npk) =  40000
     Max angular momentum in pseudopotentials (lmaxx) =  4
     file O.pbe-n-kjpaw_psl.0.1.UPF: wavefunction(s)  2P renormalized
     Message from routine setup:
     using ibrav=0 with symmetry is DISCOURAGED, use correct ibrav instead

     Subspace diagonalization in iterative solution of the eigenvalue problem:
     a serial algorithm will be used


     G-vector sticks info
     --------------------
     sticks:   dense  smooth     PW     G-vecs:    dense   smooth      PW
     Sum         877     437    145                19549     6931    1309

     Using Slab Decomposition



     bravais-lattice index     =            0
     lattice parameter (alat)  =       5.2395  a.u.
     unit-cell volume          =     143.8347 (a.u.)^3
     number of atoms/cell      =            2
     number of atomic types    =            2
     number of electrons       =        26.00
     number of Kohn-Sham states=           17
     kinetic-energy cutoff     =      50.0000  Ry
     charge density cutoff     =     400.0000  Ry
     scf convergence threshold =      1.0E-08
     mixing beta               =       0.4000
     number of iterations used =            8  plain     mixing
     Exchange-correlation= SLA  PW   PBE  PBE
                           (   1   4   3   4   0   0   0)

     celldm(1)=   5.239477  celldm(2)=   0.000000  celldm(3)=   0.000000
     celldm(4)=   0.000000  celldm(5)=   0.000000  celldm(6)=   0.000000

     crystal axes: (cart. coord. in units of alat)
               a(1) = (   1.000000   0.000000   0.000000 )  
               a(2) = (   0.000000   1.000000   0.000000 )  
               a(3) = (   0.000000   0.000000   1.000000 )  

     reciprocal axes: (cart. coord. in units 2 pi/alat)
               b(1) = (  1.000000  0.000000  0.000000 )  
               b(2) = (  0.000000  1.000000  0.000000 )  
               b(3) = (  0.000000  0.000000  1.000000 )  


     PseudoPot. # 1 for O  read from file:
     ../SSSP_1.3.0_PBE_efficiency/O.pbe-n-kjpaw_psl.0.1.UPF
     MD5 check sum: 0234752ac141de4415c5fc33072bef88
     Pseudo is Projector augmented-wave + core cor, Zval =  6.0
     Generated using "atomic" code by A. Dal Corso  v.5.0.99 svn rev. 10869
     Shape of augmentation charge: BESSEL
     Using radial grid of 1095 points,  4 beta functions with: 
                l(1) =   0
                l(2) =   0
                l(3) =   1
                l(4) =   1
     Q(r) pseudized with 0 coefficients 


     PseudoPot. # 2 for Zn read from file:
     ../SSSP_1.3.0_PBE_efficiency/Zn_pbe_v1.uspp.F.UPF
     MD5 check sum: df62231357ef9e81f77b2b3087fa5675
     Pseudo is Ultrasoft, Zval = 20.0
     Generated by new atomic code, or converted to UPF format
     Using radial grid of  943 points,  6 beta functions with: 
                l(1) =   0
                l(2) =   0
                l(3) =   1
                l(4) =   1
                l(5) =   2
                l(6) =   2
     Q(r) pseudized with  8 coefficients,  rinner =    1.100   1.100   1.100
                                                       1.100   1.100

     atomic species   valence    mass     pseudopotential
     O                 6.00    15.99940     O ( 1.00)
     Zn               20.00    65.38000     Zn( 1.00)

     48 Sym. Ops., with inversion, found


                                    s                        frac. trans.

      isym =  1     identity                                     

 cryst.   s( 1) = (     1          0          0      )
                  (     0          1          0      )
                  (     0          0          1      )

 cart.    s( 1) = (  1.0000000  0.0000000  0.0000000 )
                  (  0.0000000  1.0000000  0.0000000 )
                  (  0.0000000  0.0000000  1.0000000 )


      isym =  2     180 deg rotation - cart. axis [0,0,1]        

 cryst.   s( 2) = (    -1          0          0      )
                  (     0         -1          0      )
                  (     0          0          1      )

 cart.    s( 2) = ( -1.0000000  0.0000000  0.0000000 )
                  (  0.0000000 -1.0000000  0.0000000 )
                  (  0.0000000  0.0000000  1.0000000 )


      isym =  3     180 deg rotation - cart. axis [0,1,0]        

 cryst.   s( 3) = (    -1          0          0      )
                  (     0          1          0      )
                  (     0          0         -1      )

 cart.    s( 3) = ( -1.0000000  0.0000000  0.0000000 )
                  (  0.0000000  1.0000000  0.0000000 )
                  (  0.0000000  0.0000000 -1.0000000 )


      isym =  4     180 deg rotation - cart. axis [1,0,0]        

 cryst.   s( 4) = (     1          0          0      )
                  (     0         -1          0      )
                  (     0          0         -1      )

 cart.    s( 4) = (  1.0000000  0.0000000  0.0000000 )
                  (  0.0000000 -1.0000000  0.0000000 )
                  (  0.0000000  0.0000000 -1.0000000 )


      isym =  5     180 deg rotation - cart. axis [1,1,0]        

 cryst.   s( 5) = (     0          1          0      )
                  (     1          0          0      )
                  (     0          0         -1      )

 cart.    s( 5) = (  0.0000000  1.0000000  0.0000000 )
                  (  1.0000000  0.0000000  0.0000000 )
                  (  0.0000000  0.0000000 -1.0000000 )


      isym =  6     180 deg rotation - cart. axis [1,-1,0]       

 cryst.   s( 6) = (     0         -1          0      )
                  (    -1          0          0      )
                  (     0          0         -1      )

 cart.    s( 6) = (  0.0000000 -1.0000000  0.0000000 )
                  ( -1.0000000  0.0000000  0.0000000 )
                  (  0.0000000  0.0000000 -1.0000000 )


      isym =  7      90 deg rotation - cart. axis [0,0,-1]       

 cryst.   s( 7) = (     0         -1          0      )
                  (     1          0          0      )
                  (     0          0          1      )

 cart.    s( 7) = (  0.0000000  1.0000000  0.0000000 )
                  ( -1.0000000  0.0000000  0.0000000 )
                  (  0.0000000  0.0000000  1.0000000 )


      isym =  8      90 deg rotation - cart. axis [0,0,1]        

 cryst.   s( 8) = (     0          1          0      )
                  (    -1          0          0      )
                  (     0          0          1      )

 cart.    s( 8) = (  0.0000000 -1.0000000  0.0000000 )
                  (  1.0000000  0.0000000  0.0000000 )
                  (  0.0000000  0.0000000  1.0000000 )


      isym =  9     180 deg rotation - cart. axis [1,0,1]        

 cryst.   s( 9) = (     0          0          1      )
                  (     0         -1          0      )
                  (     1          0          0      )

 cart.    s( 9) = (  0.0000000  0.0000000  1.0000000 )
                  (  0.0000000 -1.0000000  0.0000000 )
                  (  1.0000000  0.0000000  0.0000000 )


      isym = 10     180 deg rotation - cart. axis [-1,0,1]       

 cryst.   s(10) = (     0          0         -1      )
                  (     0         -1          0      )
                  (    -1          0          0      )

 cart.    s(10) = (  0.0000000  0.0000000 -1.0000000 )
                  (  0.0000000 -1.0000000  0.0000000 )
                  ( -1.0000000  0.0000000  0.0000000 )


      isym = 11      90 deg rotation - cart. axis [0,1,0]        

 cryst.   s(11) = (     0          0         -1      )
                  (     0          1          0      )
                  (     1          0          0      )

 cart.    s(11) = (  0.0000000  0.0000000  1.0000000 )
                  (  0.0000000  1.0000000  0.0000000 )
                  ( -1.0000000  0.0000000  0.0000000 )


      isym = 12      90 deg rotation - cart. axis [0,-1,0]       

 cryst.   s(12) = (     0          0          1      )
                  (     0          1          0      )
                  (    -1          0          0      )

 cart.    s(12) = (  0.0000000  0.0000000 -1.0000000 )
                  (  0.0000000  1.0000000  0.0000000 )
                  (  1.0000000  0.0000000  0.0000000 )


      isym = 13     180 deg rotation - cart. axis [0,1,1]        

 cryst.   s(13) = (    -1          0          0      )
                  (     0          0          1      )
                  (     0          1          0      )

 cart.    s(13) = ( -1.0000000  0.0000000  0.0000000 )
                  (  0.0000000  0.0000000  1.0000000 )
                  (  0.0000000  1.0000000  0.0000000 )


      isym = 14     180 deg rotation - cart. axis [0,1,-1]       

 cryst.   s(14) = (    -1          0          0      )
                  (     0          0         -1      )
                  (     0         -1          0      )

 cart.    s(14) = ( -1.0000000  0.0000000  0.0000000 )
                  (  0.0000000  0.0000000 -1.0000000 )
                  (  0.0000000 -1.0000000  0.0000000 )


      isym = 15      90 deg rotation - cart. axis [-1,0,0]       

 cryst.   s(15) = (     1          0          0      )
                  (     0          0         -1      )
                  (     0          1          0      )

 cart.    s(15) = (  1.0000000  0.0000000  0.0000000 )
                  (  0.0000000  0.0000000  1.0000000 )
                  (  0.0000000 -1.0000000  0.0000000 )


      isym = 16      90 deg rotation - cart. axis [1,0,0]        

 cryst.   s(16) = (     1          0          0      )
                  (     0          0          1      )
                  (     0         -1          0      )

 cart.    s(16) = (  1.0000000  0.0000000  0.0000000 )
                  (  0.0000000  0.0000000 -1.0000000 )
                  (  0.0000000  1.0000000  0.0000000 )


      isym = 17     120 deg rotation - cart. axis [-1,-1,-1]     

 cryst.   s(17) = (     0          0          1      )
                  (     1          0          0      )
                  (     0          1          0      )

 cart.    s(17) = (  0.0000000  1.0000000  0.0000000 )
                  (  0.0000000  0.0000000  1.0000000 )
                  (  1.0000000  0.0000000  0.0000000 )


      isym = 18     120 deg rotation - cart. axis [-1,1,1]       

 cryst.   s(18) = (     0          0         -1      )
                  (    -1          0          0      )
                  (     0          1          0      )

 cart.    s(18) = (  0.0000000 -1.0000000  0.0000000 )
                  (  0.0000000  0.0000000  1.0000000 )
                  ( -1.0000000  0.0000000  0.0000000 )


      isym = 19     120 deg rotation - cart. axis [1,1,-1]       

 cryst.   s(19) = (     0          0         -1      )
                  (     1          0          0      )
                  (     0         -1          0      )

 cart.    s(19) = (  0.0000000  1.0000000  0.0000000 )
                  (  0.0000000  0.0000000 -1.0000000 )
                  ( -1.0000000  0.0000000  0.0000000 )


      isym = 20     120 deg rotation - cart. axis [1,-1,1]       

 cryst.   s(20) = (     0          0          1      )
                  (    -1          0          0      )
                  (     0         -1          0      )

 cart.    s(20) = (  0.0000000 -1.0000000  0.0000000 )
                  (  0.0000000  0.0000000 -1.0000000 )
                  (  1.0000000  0.0000000  0.0000000 )


      isym = 21     120 deg rotation - cart. axis [1,1,1]        

 cryst.   s(21) = (     0          1          0      )
                  (     0          0          1      )
                  (     1          0          0      )

 cart.    s(21) = (  0.0000000  0.0000000  1.0000000 )
                  (  1.0000000  0.0000000  0.0000000 )
                  (  0.0000000  1.0000000  0.0000000 )


      isym = 22     120 deg rotation - cart. axis [-1,1,-1]      

 cryst.   s(22) = (     0         -1          0      )
                  (     0          0         -1      )
                  (     1          0          0      )

 cart.    s(22) = (  0.0000000  0.0000000  1.0000000 )
                  ( -1.0000000  0.0000000  0.0000000 )
                  (  0.0000000 -1.0000000  0.0000000 )


      isym = 23     120 deg rotation - cart. axis [1,-1,-1]      

 cryst.   s(23) = (     0         -1          0      )
                  (     0          0          1      )
                  (    -1          0          0      )

 cart.    s(23) = (  0.0000000  0.0000000 -1.0000000 )
                  ( -1.0000000  0.0000000  0.0000000 )
                  (  0.0000000  1.0000000  0.0000000 )


      isym = 24     120 deg rotation - cart. axis [-1,-1,1]      

 cryst.   s(24) = (     0          1          0      )
                  (     0          0         -1      )
                  (    -1          0          0      )

 cart.    s(24) = (  0.0000000  0.0000000 -1.0000000 )
                  (  1.0000000  0.0000000  0.0000000 )
                  (  0.0000000 -1.0000000  0.0000000 )


      isym = 25     inversion                                    

 cryst.   s(25) = (    -1          0          0      )
                  (     0         -1          0      )
                  (     0          0         -1      )

 cart.    s(25) = ( -1.0000000  0.0000000  0.0000000 )
                  (  0.0000000 -1.0000000  0.0000000 )
                  (  0.0000000  0.0000000 -1.0000000 )


      isym = 26     inv. 180 deg rotation - cart. axis [0,0,1]   

 cryst.   s(26) = (     1          0          0      )
                  (     0          1          0      )
                  (     0          0         -1      )

 cart.    s(26) = (  1.0000000  0.0000000  0.0000000 )
                  (  0.0000000  1.0000000  0.0000000 )
                  (  0.0000000  0.0000000 -1.0000000 )


      isym = 27     inv. 180 deg rotation - cart. axis [0,1,0]   

 cryst.   s(27) = (     1          0          0      )
                  (     0         -1          0      )
                  (     0          0          1      )

 cart.    s(27) = (  1.0000000  0.0000000  0.0000000 )
                  (  0.0000000 -1.0000000  0.0000000 )
                  (  0.0000000  0.0000000  1.0000000 )


      isym = 28     inv. 180 deg rotation - cart. axis [1,0,0]   

 cryst.   s(28) = (    -1          0          0      )
                  (     0          1          0      )
                  (     0          0          1      )

 cart.    s(28) = ( -1.0000000  0.0000000  0.0000000 )
                  (  0.0000000  1.0000000  0.0000000 )
                  (  0.0000000  0.0000000  1.0000000 )


      isym = 29     inv. 180 deg rotation - cart. axis [1,1,0]   

 cryst.   s(29) = (     0         -1          0      )
                  (    -1          0          0      )
                  (     0          0          1      )

 cart.    s(29) = (  0.0000000 -1.0000000  0.0000000 )
                  ( -1.0000000  0.0000000  0.0000000 )
                  (  0.0000000  0.0000000  1.0000000 )


      isym = 30     inv. 180 deg rotation - cart. axis [1,-1,0]  

 cryst.   s(30) = (     0          1          0      )
                  (     1          0          0      )
                  (     0          0          1      )

 cart.    s(30) = (  0.0000000  1.0000000  0.0000000 )
                  (  1.0000000  0.0000000  0.0000000 )
                  (  0.0000000  0.0000000  1.0000000 )


      isym = 31     inv.  90 deg rotation - cart. axis [0,0,-1]  

 cryst.   s(31) = (     0          1          0      )
                  (    -1          0          0      )
                  (     0          0         -1      )

 cart.    s(31) = (  0.0000000 -1.0000000  0.0000000 )
                  (  1.0000000  0.0000000  0.0000000 )
                  (  0.0000000  0.0000000 -1.0000000 )


      isym = 32     inv.  90 deg rotation - cart. axis [0,0,1]   

 cryst.   s(32) = (     0         -1          0      )
                  (     1          0          0      )
                  (     0          0         -1      )

 cart.    s(32) = (  0.0000000  1.0000000  0.0000000 )
                  ( -1.0000000  0.0000000  0.0000000 )
                  (  0.0000000  0.0000000 -1.0000000 )


      isym = 33     inv. 180 deg rotation - cart. axis [1,0,1]   

 cryst.   s(33) = (     0          0         -1      )
                  (     0          1          0      )
                  (    -1          0          0      )

 cart.    s(33) = (  0.0000000  0.0000000 -1.0000000 )
                  (  0.0000000  1.0000000  0.0000000 )
                  ( -1.0000000  0.0000000  0.0000000 )


      isym = 34     inv. 180 deg rotation - cart. axis [-1,0,1]  

 cryst.   s(34) = (     0          0          1      )
                  (     0          1          0      )
                  (     1          0          0      )

 cart.    s(34) = (  0.0000000  0.0000000  1.0000000 )
                  (  0.0000000  1.0000000  0.0000000 )
                  (  1.0000000  0.0000000  0.0000000 )


      isym = 35     inv.  90 deg rotation - cart. axis [0,1,0]   

 cryst.   s(35) = (     0          0          1      )
                  (     0         -1          0      )
                  (    -1          0          0      )

 cart.    s(35) = (  0.0000000  0.0000000 -1.0000000 )
                  (  0.0000000 -1.0000000  0.0000000 )
                  (  1.0000000  0.0000000  0.0000000 )


      isym = 36     inv.  90 deg rotation - cart. axis [0,-1,0]  

 cryst.   s(36) = (     0          0         -1      )
                  (     0         -1          0      )
                  (     1          0          0      )

 cart.    s(36) = (  0.0000000  0.0000000  1.0000000 )
                  (  0.0000000 -1.0000000  0.0000000 )
                  ( -1.0000000  0.0000000  0.0000000 )


      isym = 37     inv. 180 deg rotation - cart. axis [0,1,1]   

 cryst.   s(37) = (     1          0          0      )
                  (     0          0         -1      )
                  (     0         -1          0      )

 cart.    s(37) = (  1.0000000  0.0000000  0.0000000 )
                  (  0.0000000  0.0000000 -1.0000000 )
                  (  0.0000000 -1.0000000  0.0000000 )


      isym = 38     inv. 180 deg rotation - cart. axis [0,1,-1]  

 cryst.   s(38) = (     1          0          0      )
                  (     0          0          1      )
                  (     0          1          0      )

 cart.    s(38) = (  1.0000000  0.0000000  0.0000000 )
                  (  0.0000000  0.0000000  1.0000000 )
                  (  0.0000000  1.0000000  0.0000000 )


      isym = 39     inv.  90 deg rotation - cart. axis [-1,0,0]  

 cryst.   s(39) = (    -1          0          0      )
                  (     0          0          1      )
                  (     0         -1          0      )

 cart.    s(39) = ( -1.0000000  0.0000000  0.0000000 )
                  (  0.0000000  0.0000000 -1.0000000 )
                  (  0.0000000  1.0000000  0.0000000 )


      isym = 40     inv.  90 deg rotation - cart. axis [1,0,0]   

 cryst.   s(40) = (    -1          0          0      )
                  (     0          0         -1      )
                  (     0          1          0      )

 cart.    s(40) = ( -1.0000000  0.0000000  0.0000000 )
                  (  0.0000000  0.0000000  1.0000000 )
                  (  0.0000000 -1.0000000  0.0000000 )


      isym = 41     inv. 120 deg rotation - cart. axis [-1,-1,-1]

 cryst.   s(41) = (     0          0         -1      )
                  (    -1          0          0      )
                  (     0         -1          0      )

 cart.    s(41) = (  0.0000000 -1.0000000  0.0000000 )
                  (  0.0000000  0.0000000 -1.0000000 )
                  ( -1.0000000  0.0000000  0.0000000 )


      isym = 42     inv. 120 deg rotation - cart. axis [-1,1,1]  

 cryst.   s(42) = (     0          0          1      )
                  (     1          0          0      )
                  (     0         -1          0      )

 cart.    s(42) = (  0.0000000  1.0000000  0.0000000 )
                  (  0.0000000  0.0000000 -1.0000000 )
                  (  1.0000000  0.0000000  0.0000000 )


      isym = 43     inv. 120 deg rotation - cart. axis [1,1,-1]  

 cryst.   s(43) = (     0          0          1      )
                  (    -1          0          0      )
                  (     0          1          0      )

 cart.    s(43) = (  0.0000000 -1.0000000  0.0000000 )
                  (  0.0000000  0.0000000  1.0000000 )
                  (  1.0000000  0.0000000  0.0000000 )


      isym = 44     inv. 120 deg rotation - cart. axis [1,-1,1]  

 cryst.   s(44) = (     0          0         -1      )
                  (     1          0          0      )
                  (     0          1          0      )

 cart.    s(44) = (  0.0000000  1.0000000  0.0000000 )
                  (  0.0000000  0.0000000  1.0000000 )
                  ( -1.0000000  0.0000000  0.0000000 )


      isym = 45     inv. 120 deg rotation - cart. axis [1,1,1]   

 cryst.   s(45) = (     0         -1          0      )
                  (     0          0         -1      )
                  (    -1          0          0      )

 cart.    s(45) = (  0.0000000  0.0000000 -1.0000000 )
                  ( -1.0000000  0.0000000  0.0000000 )
                  (  0.0000000 -1.0000000  0.0000000 )


      isym = 46     inv. 120 deg rotation - cart. axis [-1,1,-1] 

 cryst.   s(46) = (     0          1          0      )
                  (     0          0          1      )
                  (    -1          0          0      )

 cart.    s(46) = (  0.0000000  0.0000000 -1.0000000 )
                  (  1.0000000  0.0000000  0.0000000 )
                  (  0.0000000  1.0000000  0.0000000 )


      isym = 47     inv. 120 deg rotation - cart. axis [1,-1,-1] 

 cryst.   s(47) = (     0          1          0      )
                  (     0          0         -1      )
                  (     1          0          0      )

 cart.    s(47) = (  0.0000000  0.0000000  1.0000000 )
                  (  1.0000000  0.0000000  0.0000000 )
                  (  0.0000000 -1.0000000  0.0000000 )


      isym = 48     inv. 120 deg rotation - cart. axis [-1,-1,1] 

 cryst.   s(48) = (     0         -1          0      )
                  (     0          0          1      )
                  (     1          0          0      )

 cart.    s(48) = (  0.0000000  0.0000000  1.0000000 )
                  ( -1.0000000  0.0000000  0.0000000 )
                  (  0.0000000  1.0000000  0.0000000 )


   Cartesian axes

     site n.     atom                  positions (alat units)
         1        Zn     tau(   1) = (   0.0000000   0.0000000   0.0000000  )
         2        O      tau(   2) = (   0.5000000   0.5000000   0.5000000  )

   Crystallographic axes

     site n.     atom                  positions (cryst. coord.)
         1        Zn     tau(   1) = (  0.0000000  0.0000000  0.0000000  )
         2        O      tau(   2) = (  0.5000000  0.5000000  0.5000000  )

     number of k points=    84  Marzari-Vanderbilt smearing, width (Ry)=  0.0147
                       cart. coord. in units 2pi/alat
        k(    1) = (   0.0000000   0.0000000   0.0000000), wk =   0.0011574
        k(    2) = (   0.0000000   0.0000000   0.0833333), wk =   0.0069444
        k(    3) = (   0.0000000   0.0000000   0.1666667), wk =   0.0069444
        k(    4) = (   0.0000000   0.0000000   0.2500000), wk =   0.0069444
        k(    5) = (   0.0000000   0.0000000   0.3333333), wk =   0.0069444
        k(    6) = (   0.0000000   0.0000000   0.4166667), wk =   0.0069444
        k(    7) = (   0.0000000   0.0000000  -0.5000000), wk =   0.0034722
        k(    8) = (   0.0000000   0.0833333   0.0833333), wk =   0.0138889
        k(    9) = (   0.0000000   0.0833333   0.1666667), wk =   0.0277778
        k(   10) = (   0.0000000   0.0833333   0.2500000), wk =   0.0277778
        k(   11) = (   0.0000000   0.0833333   0.3333333), wk =   0.0277778
        k(   12) = (   0.0000000   0.0833333   0.4166667), wk =   0.0277778
        k(   13) = (   0.0000000   0.0833333  -0.5000000), wk =   0.0138889
        k(   14) = (   0.0000000   0.1666667   0.1666667), wk =   0.0138889
        k(   15) = (   0.0000000   0.1666667   0.2500000), wk =   0.0277778
        k(   16) = (   0.0000000   0.1666667   0.3333333), wk =   0.0277778
        k(   17) = (   0.0000000   0.1666667   0.4166667), wk =   0.0277778
        k(   18) = (   0.0000000   0.1666667  -0.5000000), wk =   0.0138889
        k(   19) = (   0.0000000   0.2500000   0.2500000), wk =   0.0138889
        k(   20) = (   0.0000000   0.2500000   0.3333333), wk =   0.0277778
        k(   21) = (   0.0000000   0.2500000   0.4166667), wk =   0.0277778
        k(   22) = (   0.0000000   0.2500000  -0.5000000), wk =   0.0138889
        k(   23) = (   0.0000000   0.3333333   0.3333333), wk =   0.0138889
        k(   24) = (   0.0000000   0.3333333   0.4166667), wk =   0.0277778
        k(   25) = (   0.0000000   0.3333333  -0.5000000), wk =   0.0138889
        k(   26) = (   0.0000000   0.4166667   0.4166667), wk =   0.0138889
        k(   27) = (   0.0000000   0.4166667  -0.5000000), wk =   0.0138889
        k(   28) = (   0.0000000  -0.5000000  -0.5000000), wk =   0.0034722
        k(   29) = (   0.0833333   0.0833333   0.0833333), wk =   0.0092593
        k(   30) = (   0.0833333   0.0833333   0.1666667), wk =   0.0277778
        k(   31) = (   0.0833333   0.0833333   0.2500000), wk =   0.0277778
        k(   32) = (   0.0833333   0.0833333   0.3333333), wk =   0.0277778
        k(   33) = (   0.0833333   0.0833333   0.4166667), wk =   0.0277778
        k(   34) = (   0.0833333   0.0833333  -0.5000000), wk =   0.0138889
        k(   35) = (   0.0833333   0.1666667   0.1666667), wk =   0.0277778
        k(   36) = (   0.0833333   0.1666667   0.2500000), wk =   0.0555556
        k(   37) = (   0.0833333   0.1666667   0.3333333), wk =   0.0555556
        k(   38) = (   0.0833333   0.1666667   0.4166667), wk =   0.0555556
        k(   39) = (   0.0833333   0.1666667  -0.5000000), wk =   0.0277778
        k(   40) = (   0.0833333   0.2500000   0.2500000), wk =   0.0277778
        k(   41) = (   0.0833333   0.2500000   0.3333333), wk =   0.0555556
        k(   42) = (   0.0833333   0.2500000   0.4166667), wk =   0.0555556
        k(   43) = (   0.0833333   0.2500000  -0.5000000), wk =   0.0277778
        k(   44) = (   0.0833333   0.3333333   0.3333333), wk =   0.0277778
        k(   45) = (   0.0833333   0.3333333   0.4166667), wk =   0.0555556
        k(   46) = (   0.0833333   0.3333333  -0.5000000), wk =   0.0277778
        k(   47) = (   0.0833333   0.4166667   0.4166667), wk =   0.0277778
        k(   48) = (   0.0833333   0.4166667  -0.5000000), wk =   0.0277778
        k(   49) = (   0.0833333  -0.5000000  -0.5000000), wk =   0.0069444
        k(   50) = (   0.1666667   0.1666667   0.1666667), wk =   0.0092593
        k(   51) = (   0.1666667   0.1666667   0.2500000), wk =   0.0277778
        k(   52) = (   0.1666667   0.1666667   0.3333333), wk =   0.0277778
        k(   53) = (   0.1666667   0.1666667   0.4166667), wk =   0.0277778
        k(   54) = (   0.1666667   0.1666667  -0.5000000), wk =   0.0138889
        k(   55) = (   0.1666667   0.2500000   0.2500000), wk =   0.0277778
        k(   56) = (   0.1666667   0.2500000   0.3333333), wk =   0.0555556
        k(   57) = (   0.1666667   0.2500000   0.4166667), wk =   0.0555556
        k(   58) = (   0.1666667   0.2500000  -0.5000000), wk =   0.0277778
        k(   59) = (   0.1666667   0.3333333   0.3333333), wk =   0.0277778
        k(   60) = (   0.1666667   0.3333333   0.4166667), wk =   0.0555556
        k(   61) = (   0.1666667   0.3333333  -0.5000000), wk =   0.0277778
        k(   62) = (   0.1666667   0.4166667   0.4166667), wk =   0.0277778
        k(   63) = (   0.1666667   0.4166667  -0.5000000), wk =   0.0277778
        k(   64) = (   0.1666667  -0.5000000  -0.5000000), wk =   0.0069444
        k(   65) = (   0.2500000   0.2500000   0.2500000), wk =   0.0092593
        k(   66) = (   0.2500000   0.2500000   0.3333333), wk =   0.0277778
        k(   67) = (   0.2500000   0.2500000   0.4166667), wk =   0.0277778
        k(   68) = (   0.2500000   0.2500000  -0.5000000), wk =   0.0138889
        k(   69) = (   0.2500000   0.3333333   0.3333333), wk =   0.0277778
        k(   70) = (   0.2500000   0.3333333   0.4166667), wk =   0.0555556
        k(   71) = (   0.2500000   0.3333333  -0.5000000), wk =   0.0277778
        k(   72) = (   0.2500000   0.4166667   0.4166667), wk =   0.0277778
        k(   73) = (   0.2500000   0.4166667  -0.5000000), wk =   0.0277778
        k(   74) = (   0.2500000  -0.5000000  -0.5000000), wk =   0.0069444
        k(   75) = (   0.3333333   0.3333333   0.3333333), wk =   0.0092593
        k(   76) = (   0.3333333   0.3333333   0.4166667), wk =   0.0277778
        k(   77) = (   0.3333333   0.3333333  -0.5000000), wk =   0.0138889
        k(   78) = (   0.3333333   0.4166667   0.4166667), wk =   0.0277778
        k(   79) = (   0.3333333   0.4166667  -0.5000000), wk =   0.0277778
        k(   80) = (   0.3333333  -0.5000000  -0.5000000), wk =   0.0069444
        k(   81) = (   0.4166667   0.4166667   0.4166667), wk =   0.0092593
        k(   82) = (   0.4166667   0.4166667  -0.5000000), wk =   0.0138889
        k(   83) = (   0.4166667  -0.5000000  -0.5000000), wk =   0.0069444
        k(   84) = (  -0.5000000  -0.5000000  -0.5000000), wk =   0.0011574

                       cryst. coord.
        k(    1) = (   0.0000000   0.0000000   0.0000000), wk =   0.0011574
        k(    2) = (   0.0000000   0.0000000   0.0833333), wk =   0.0069444
        k(    3) = (   0.0000000   0.0000000   0.1666667), wk =   0.0069444
        k(    4) = (   0.0000000   0.0000000   0.2500000), wk =   0.0069444
        k(    5) = (   0.0000000   0.0000000   0.3333333), wk =   0.0069444
        k(    6) = (   0.0000000   0.0000000   0.4166667), wk =   0.0069444
        k(    7) = (   0.0000000   0.0000000  -0.5000000), wk =   0.0034722
        k(    8) = (   0.0000000   0.0833333   0.0833333), wk =   0.0138889
        k(    9) = (   0.0000000   0.0833333   0.1666667), wk =   0.0277778
        k(   10) = (   0.0000000   0.0833333   0.2500000), wk =   0.0277778
        k(   11) = (   0.0000000   0.0833333   0.3333333), wk =   0.0277778
        k(   12) = (   0.0000000   0.0833333   0.4166667), wk =   0.0277778
        k(   13) = (   0.0000000   0.0833333  -0.5000000), wk =   0.0138889
        k(   14) = (   0.0000000   0.1666667   0.1666667), wk =   0.0138889
        k(   15) = (   0.0000000   0.1666667   0.2500000), wk =   0.0277778
        k(   16) = (   0.0000000   0.1666667   0.3333333), wk =   0.0277778
        k(   17) = (   0.0000000   0.1666667   0.4166667), wk =   0.0277778
        k(   18) = (   0.0000000   0.1666667  -0.5000000), wk =   0.0138889
        k(   19) = (   0.0000000   0.2500000   0.2500000), wk =   0.0138889
        k(   20) = (   0.0000000   0.2500000   0.3333333), wk =   0.0277778
        k(   21) = (   0.0000000   0.2500000   0.4166667), wk =   0.0277778
        k(   22) = (   0.0000000   0.2500000  -0.5000000), wk =   0.0138889
        k(   23) = (   0.0000000   0.3333333   0.3333333), wk =   0.0138889
        k(   24) = (   0.0000000   0.3333333   0.4166667), wk =   0.0277778
        k(   25) = (   0.0000000   0.3333333  -0.5000000), wk =   0.0138889
        k(   26) = (   0.0000000   0.4166667   0.4166667), wk =   0.0138889
        k(   27) = (   0.0000000   0.4166667  -0.5000000), wk =   0.0138889
        k(   28) = (   0.0000000  -0.5000000  -0.5000000), wk =   0.0034722
        k(   29) = (   0.0833333   0.0833333   0.0833333), wk =   0.0092593
        k(   30) = (   0.0833333   0.0833333   0.1666667), wk =   0.0277778
        k(   31) = (   0.0833333   0.0833333   0.2500000), wk =   0.0277778
        k(   32) = (   0.0833333   0.0833333   0.3333333), wk =   0.0277778
        k(   33) = (   0.0833333   0.0833333   0.4166667), wk =   0.0277778
        k(   34) = (   0.0833333   0.0833333  -0.5000000), wk =   0.0138889
        k(   35) = (   0.0833333   0.1666667   0.1666667), wk =   0.0277778
        k(   36) = (   0.0833333   0.1666667   0.2500000), wk =   0.0555556
        k(   37) = (   0.0833333   0.1666667   0.3333333), wk =   0.0555556
        k(   38) = (   0.0833333   0.1666667   0.4166667), wk =   0.0555556
        k(   39) = (   0.0833333   0.1666667  -0.5000000), wk =   0.0277778
        k(   40) = (   0.0833333   0.2500000   0.2500000), wk =   0.0277778
        k(   41) = (   0.0833333   0.2500000   0.3333333), wk =   0.0555556
        k(   42) = (   0.0833333   0.2500000   0.4166667), wk =   0.0555556
        k(   43) = (   0.0833333   0.2500000  -0.5000000), wk =   0.0277778
        k(   44) = (   0.0833333   0.3333333   0.3333333), wk =   0.0277778
        k(   45) = (   0.0833333   0.3333333   0.4166667), wk =   0.0555556
        k(   46) = (   0.0833333   0.3333333  -0.5000000), wk =   0.0277778
        k(   47) = (   0.0833333   0.4166667   0.4166667), wk =   0.0277778
        k(   48) = (   0.0833333   0.4166667  -0.5000000), wk =   0.0277778
        k(   49) = (   0.0833333  -0.5000000  -0.5000000), wk =   0.0069444
        k(   50) = (   0.1666667   0.1666667   0.1666667), wk =   0.0092593
        k(   51) = (   0.1666667   0.1666667   0.2500000), wk =   0.0277778
        k(   52) = (   0.1666667   0.1666667   0.3333333), wk =   0.0277778
        k(   53) = (   0.1666667   0.1666667   0.4166667), wk =   0.0277778
        k(   54) = (   0.1666667   0.1666667  -0.5000000), wk =   0.0138889
        k(   55) = (   0.1666667   0.2500000   0.2500000), wk =   0.0277778
        k(   56) = (   0.1666667   0.2500000   0.3333333), wk =   0.0555556
        k(   57) = (   0.1666667   0.2500000   0.4166667), wk =   0.0555556
        k(   58) = (   0.1666667   0.2500000  -0.5000000), wk =   0.0277778
        k(   59) = (   0.1666667   0.3333333   0.3333333), wk =   0.0277778
        k(   60) = (   0.1666667   0.3333333   0.4166667), wk =   0.0555556
        k(   61) = (   0.1666667   0.3333333  -0.5000000), wk =   0.0277778
        k(   62) = (   0.1666667   0.4166667   0.4166667), wk =   0.0277778
        k(   63) = (   0.1666667   0.4166667  -0.5000000), wk =   0.0277778
        k(   64) = (   0.1666667  -0.5000000  -0.5000000), wk =   0.0069444
        k(   65) = (   0.2500000   0.2500000   0.2500000), wk =   0.0092593
        k(   66) = (   0.2500000   0.2500000   0.3333333), wk =   0.0277778
        k(   67) = (   0.2500000   0.2500000   0.4166667), wk =   0.0277778
        k(   68) = (   0.2500000   0.2500000  -0.5000000), wk =   0.0138889
        k(   69) = (   0.2500000   0.3333333   0.3333333), wk =   0.0277778
        k(   70) = (   0.2500000   0.3333333   0.4166667), wk =   0.0555556
        k(   71) = (   0.2500000   0.3333333  -0.5000000), wk =   0.0277778
        k(   72) = (   0.2500000   0.4166667   0.4166667), wk =   0.0277778
        k(   73) = (   0.2500000   0.4166667  -0.5000000), wk =   0.0277778
        k(   74) = (   0.2500000  -0.5000000  -0.5000000), wk =   0.0069444
        k(   75) = (   0.3333333   0.3333333   0.3333333), wk =   0.0092593
        k(   76) = (   0.3333333   0.3333333   0.4166667), wk =   0.0277778
        k(   77) = (   0.3333333   0.3333333  -0.5000000), wk =   0.0138889
        k(   78) = (   0.3333333   0.4166667   0.4166667), wk =   0.0277778
        k(   79) = (   0.3333333   0.4166667  -0.5000000), wk =   0.0277778
        k(   80) = (   0.3333333  -0.5000000  -0.5000000), wk =   0.0069444
        k(   81) = (   0.4166667   0.4166667   0.4166667), wk =   0.0092593
        k(   82) = (   0.4166667   0.4166667  -0.5000000), wk =   0.0138889
        k(   83) = (   0.4166667  -0.5000000  -0.5000000), wk =   0.0069444
        k(   84) = (  -0.5000000  -0.5000000  -0.5000000), wk =   0.0011574

     Dense  grid:    19549 G-vectors     FFT dimensions: (  36,  36,  36)

     Smooth grid:     6931 G-vectors     FFT dimensions: (  24,  24,  24)

     Dynamical RAM for                 wfc:       0.22 MB

     Dynamical RAM for     wfc (w. buffer):      18.94 MB

     Dynamical RAM for           str. fact:       0.60 MB

     Dynamical RAM for           local pot:       0.00 MB

     Dynamical RAM for          nlocal pot:       0.34 MB

     Dynamical RAM for                qrad:       3.21 MB

     Dynamical RAM for          rho,v,vnew:       1.96 MB

     Dynamical RAM for               rhoin:       0.65 MB

     Dynamical RAM for            rho*nmix:       4.77 MB

     Dynamical RAM for           G-vectors:       1.17 MB

     Dynamical RAM for          h,s,v(r/c):       0.05 MB

     Dynamical RAM for          <psi|beta>:       0.01 MB

     Dynamical RAM for                 psi:       0.45 MB

     Dynamical RAM for                hpsi:       0.45 MB

     Dynamical RAM for                spsi:       0.45 MB

     Dynamical RAM for      wfcinit/wfcrot:       0.45 MB

     Dynamical RAM for           addusdens:      55.78 MB

     Dynamical RAM for          addusforce:      55.93 MB

     Dynamical RAM for         addusstress:      59.96 MB

     Estimated static dynamical RAM per process >      29.55 MB

     Estimated max dynamical RAM per process >      94.28 MB

     Check: negative core charge=   -0.000003

     Initial potential from superposition of free atoms

     starting charge      25.9999, renormalised to      26.0000
     Starting wfcs are   17 randomized atomic wfcs
     Checking if some PAW data can be deallocated... 

     total cpu time spent up to now is       18.4 secs

     Self-consistent Calculation

     iteration #  1     ecut=    50.00 Ry     beta= 0.40
     Davidson diagonalization with overlap

---- Real-time Memory Report at c_bands before calling an iterative solver
           103 MiB given to the printing process from OS
             0 MiB allocation reported by mallinfo(arena+hblkhd)
          4496 MiB available memory on the node where the printing process lives
------------------
     ethr =  1.00E-02,  avg # of iterations =  2.7

     total cpu time spent up to now is       40.4 secs

     WARNING: integrated charge=    26.00008755, expected=    26.00000000

     total energy              =    -503.01981581 Ry
     estimated scf accuracy    <       0.50059767 Ry

     iteration #  2     ecut=    50.00 Ry     beta= 0.40
     Davidson diagonalization with overlap

---- Real-time Memory Report at c_bands before calling an iterative solver
           138 MiB given to the printing process from OS
             0 MiB allocation reported by mallinfo(arena+hblkhd)
          4474 MiB available memory on the node where the printing process lives
------------------
     ethr =  1.93E-03,  avg # of iterations =  2.1

     total cpu time spent up to now is       51.7 secs

     WARNING: integrated charge=    26.00006300, expected=    26.00000000

     total energy              =    -503.15736382 Ry
     estimated scf accuracy    <       0.10703112 Ry

     iteration #  3     ecut=    50.00 Ry     beta= 0.40
     Davidson diagonalization with overlap

---- Real-time Memory Report at c_bands before calling an iterative solver
           138 MiB given to the printing process from OS
             0 MiB allocation reported by mallinfo(arena+hblkhd)
          4471 MiB available memory on the node where the printing process lives
------------------
     ethr =  4.12E-04,  avg # of iterations =  2.1
     Minimization algorithm failed to find Fermi energy: reverting to bisection
     Possible cause: smearing is larger than the electronic band-gap.

     total cpu time spent up to now is       76.2 secs

     WARNING: integrated charge=    26.00002518, expected=    26.00000000

     total energy              =    -503.17331814 Ry
     estimated scf accuracy    <       0.00568215 Ry

     iteration #  4     ecut=    50.00 Ry     beta= 0.40
     Davidson diagonalization with overlap

---- Real-time Memory Report at c_bands before calling an iterative solver
           139 MiB given to the printing process from OS
             0 MiB allocation reported by mallinfo(arena+hblkhd)
          4470 MiB available memory on the node where the printing process lives
------------------
     ethr =  2.19E-05,  avg # of iterations =  2.3
     Minimization algorithm failed to find Fermi energy: reverting to bisection
     Possible cause: smearing is larger than the electronic band-gap.

     total cpu time spent up to now is       88.2 secs

     WARNING: integrated charge=    26.00000484, expected=    26.00000000

     total energy              =    -503.17349637 Ry
     estimated scf accuracy    <       0.00058831 Ry

     iteration #  5     ecut=    50.00 Ry     beta= 0.40
     Davidson diagonalization with overlap

---- Real-time Memory Report at c_bands before calling an iterative solver
           139 MiB given to the printing process from OS
             0 MiB allocation reported by mallinfo(arena+hblkhd)
          4469 MiB available memory on the node where the printing process lives
------------------
     ethr =  2.26E-06,  avg # of iterations =  2.2
     Minimization algorithm failed to find Fermi energy: reverting to bisection
     Possible cause: smearing is larger than the electronic band-gap.

     total cpu time spent up to now is      107.6 secs

     total energy              =    -503.17355301 Ry
     estimated scf accuracy    <       0.00001001 Ry

     iteration #  6     ecut=    50.00 Ry     beta= 0.40
     Davidson diagonalization with overlap

---- Real-time Memory Report at c_bands before calling an iterative solver
           139 MiB given to the printing process from OS
             0 MiB allocation reported by mallinfo(arena+hblkhd)
          4467 MiB available memory on the node where the printing process lives
------------------
     ethr =  3.85E-08,  avg # of iterations =  2.0
     Minimization algorithm failed to find Fermi energy: reverting to bisection
     Possible cause: smearing is larger than the electronic band-gap.

     total cpu time spent up to now is      120.6 secs

     total energy              =    -503.17355520 Ry
     estimated scf accuracy    <       0.00000857 Ry

     iteration #  7     ecut=    50.00 Ry     beta= 0.40
     Davidson diagonalization with overlap

---- Real-time Memory Report at c_bands before calling an iterative solver
           139 MiB given to the printing process from OS
             0 MiB allocation reported by mallinfo(arena+hblkhd)
          4468 MiB available memory on the node where the printing process lives
------------------
     ethr =  3.30E-08,  avg # of iterations =  2.1
     Minimization algorithm failed to find Fermi energy: reverting to bisection
     Possible cause: smearing is larger than the electronic band-gap.

     total cpu time spent up to now is      144.6 secs

     total energy              =    -503.17355586 Ry
     estimated scf accuracy    <       0.00000013 Ry

     iteration #  8     ecut=    50.00 Ry     beta= 0.40
     Davidson diagonalization with overlap

---- Real-time Memory Report at c_bands before calling an iterative solver
           139 MiB given to the printing process from OS
             0 MiB allocation reported by mallinfo(arena+hblkhd)
          4466 MiB available memory on the node where the printing process lives
------------------
     ethr =  5.11E-10,  avg # of iterations =  2.0
     Minimization algorithm failed to find Fermi energy: reverting to bisection
     Possible cause: smearing is larger than the electronic band-gap.

     total cpu time spent up to now is      167.2 secs

     total energy              =    -503.17355590 Ry
     estimated scf accuracy    <       0.00000012 Ry

     iteration #  9     ecut=    50.00 Ry     beta= 0.40
     Davidson diagonalization with overlap

---- Real-time Memory Report at c_bands before calling an iterative solver
           140 MiB given to the printing process from OS
             0 MiB allocation reported by mallinfo(arena+hblkhd)
          4465 MiB available memory on the node where the printing process lives
------------------
     ethr =  4.61E-10,  avg # of iterations =  2.0
     Minimization algorithm failed to find Fermi energy: reverting to bisection
     Possible cause: smearing is larger than the electronic band-gap.

     total cpu time spent up to now is      177.5 secs

     End of self-consistent calculation

          k = 0.0000 0.0000 0.0000 (   847 PWs)   bands (ev):

  -113.9098 -68.0908 -68.0908 -68.0908  -6.9422   4.5326   4.5326   5.4193
     5.4193   5.4193   9.5520   9.8297   9.8297   9.8297  24.4794  24.4794
    26.9885

     occupation numbers 
     1.0000   1.0000   1.0000   1.0000   1.0000   1.0000   1.0000   1.0000
     1.0000   1.0000   1.0000   1.0000   1.0000   1.0000   0.0000   0.0000
     0.0000

          k = 0.0000 0.0000 0.0833 (   859 PWs)   bands (ev):

  -113.9098 -68.0917 -68.0909 -68.0909  -6.8842   4.5395   4.5483   5.3845
     5.3845   5.4211   8.5619   9.8971   9.8971  10.7754  23.6684  24.5798
    26.9190

     occupation numbers 
     1.0000   1.0000   1.0000   1.0000   1.0000   1.0000   1.0000   1.0000
     1.0000   1.0000   1.0000   1.0000   1.0000   0.7553   0.0000   0.0000
     0.0000

          k = 0.0000 0.0000 0.1667 (   860 PWs)   bands (ev):

  -113.9096 -68.0938 -68.0907 -68.0907  -6.7201   4.5542   4.5586   5.2935
     5.2935   5.4261   7.5133  10.0796  10.0796  11.7698  22.1902  24.8829
    26.7100

     occupation numbers 
     1.0000   1.0000   1.0000   1.0000   1.0000   1.0000   1.0000   1.0000
     1.0000   1.0000   1.0000   1.0000   1.0000   0.0000   0.0000   0.0000
     0.0000

          k = 0.0000 0.0000 0.2500 (   852 PWs)   bands (ev):

  -113.9095 -68.0966 -68.0905 -68.0905  -6.4805   4.4187   4.5848   5.1772
     5.1772   5.4330   6.7316  10.3266  10.3266  12.7175  20.5764  25.3919
    26.3832

     occupation numbers 
     1.0000   1.0000   1.0000   1.0000   1.0000   1.0000   1.0000   1.0000
     1.0000   1.0000   1.0000   1.0046   1.0046   0.0000   0.0000   0.0000
     0.0000

          k = 0.0000 0.0000 0.3333 (   852 PWs)   bands (ev):

  -113.9093 -68.0996 -68.0903 -68.0903  -6.2195   4.0451   4.6110   5.0684
     5.0684   5.4399   6.3807  10.5732  10.5732  13.6758  18.9778  26.0150
    26.0150

     occupation numbers 
     1.0000   1.0000   1.0000   1.0000   1.0000   1.0000   1.0000   1.0000
     1.0000   1.0000   1.0000   1.0819   1.0819   0.0000   0.0000   0.0000
     0.0000

          k = 0.0000 0.0000 0.4167 (   856 PWs)   bands (ev):

  -113.9092 -68.1018 -68.0901 -68.0901  -6.0117   3.6399   4.6303   4.9928
     4.9928   5.4449   6.3152  10.7546  10.7546  14.6898  17.5077  25.7233
    25.7233

     occupation numbers 
     1.0000   1.0000   1.0000   1.0000   1.0000   1.0000   1.0000   1.0000
     1.0000   1.0000   1.0000   0.8260   0.8260   0.0000   0.0000   0.0000
     0.0000

          k = 0.0000 0.0000-0.5000 (   852 PWs)   bands (ev):

  -113.9091 -68.1025 -68.0901 -68.0901  -5.9315   3.4732   4.6374   4.9659
     4.9659   5.4467   6.3176  10.8214  10.8214  15.4630  16.5698  25.6125
    25.6125

     occupation numbers 
     1.0000   1.0000   1.0000   1.0000   1.0000   1.0000   1.0000   1.0000
     1.0000   1.0000   1.0000   0.5853   0.5853   0.0000   0.0000   0.0000
     0.0000

          k = 0.0000 0.0833 0.0833 (   861 PWs)   bands (ev):

  -113.9097 -68.0917 -68.0916 -68.0909  -6.8273   4.5495   4.5648   5.3473
     5.3709   5.4045   8.2618   9.6278   9.9595  11.3653  23.5304  24.0267
    26.8680

     occupation numbers 
     1.0000   1.0000   1.0000   1.0000   1.0000   1.0000   1.0000   1.0000
     1.0000   1.0000   1.0000   1.0000   1.0000   0.0000   0.0000   0.0000
     0.0000

          k = 0.0000 0.0833 0.1667 (   853 PWs)   bands (ev):

  -113.9096 -68.0937 -68.0914 -68.0907  -6.6663   4.5598   4.5908   5.2531
     5.2923   5.4038   7.4916   9.6329  10.1286  12.2462  22.2363  24.0114
    26.7088

     occupation numbers 
     1.0000   1.0000   1.0000   1.0000   1.0000   1.0000   1.0000   1.0000
     1.0000   1.0000   1.0000   1.0000   1.0000   0.0000   0.0000   0.0000
     0.0000

          k = 0.0000 0.0833 0.2500 (   851 PWs)   bands (ev):

  -113.9094 -68.0966 -68.0912 -68.0904  -6.4315   4.4530   4.6068   5.1480
     5.1827   5.4118   6.7719   9.8529  10.3578  13.1206  20.6080  24.2256
    26.4463

     occupation numbers 
     1.0000   1.0000   1.0000   1.0000   1.0000   1.0000   1.0000   1.0000
     1.0000   1.0000   1.0000   1.0000   1.0082   0.0000   0.0000   0.0000
     0.0000

          k = 0.0000 0.0833 0.3333 (   849 PWs)   bands (ev):

  -113.9092 -68.0996 -68.0910 -68.0902  -6.1762   4.1098   4.6334   5.0595
     5.0791   5.4206   6.4093  10.1178  10.5866  14.0095  18.9902  24.4285
    26.1360

     occupation numbers 
     1.0000   1.0000   1.0000   1.0000   1.0000   1.0000   1.0000   1.0000
     1.0000   1.0000   1.0000   1.0000   1.0833   0.0000   0.0000   0.0000
     0.0000

          k = 0.0000 0.0833 0.4167 (   852 PWs)   bands (ev):

  -113.9091 -68.1018 -68.0908 -68.0900  -5.9735   3.7307   4.6551   4.9908
     5.0067   5.4271   6.3276  10.3270  10.7548  14.9762  17.5006  24.5376
    25.8824

     occupation numbers 
     1.0000   1.0000   1.0000   1.0000   1.0000   1.0000   1.0000   1.0000
     1.0000   1.0000   1.0000   1.0046   0.8252   0.0000   0.0000   0.0000
     0.0000

          k = 0.0000 0.0833-0.5000 (   848 PWs)   bands (ev):

  -113.9091 -68.1024 -68.0908 -68.0900  -5.8954   3.5731   4.6635   4.9643
     4.9809   5.4295   6.3251  10.4066  10.8167  15.8702  16.4166  24.5633
    25.7847

     occupation numbers 
     1.0000   1.0000   1.0000   1.0000   1.0000   1.0000   1.0000   1.0000
     1.0000   1.0000   1.0000   1.0179   0.6028   0.0000   0.0000   0.0000
     0.0000

          k = 0.0000 0.1667 0.1667 (   859 PWs)   bands (ev):

  -113.9095 -68.0937 -68.0936 -68.0905  -6.5142   4.5592   4.6647   5.1574
     5.2696   5.3640   7.3004   9.0863  10.2617  13.0477  22.3267  22.4318
    26.6879

     occupation numbers 
     1.0000   1.0000   1.0000   1.0000   1.0000   1.0000   1.0000   1.0000
     1.0000   1.0000   1.0000   1.0000   1.0012   0.0000   0.0000   0.0000
     0.0000

          k = 0.0000 0.1667 0.2500 (   856 PWs)   bands (ev):

  -113.9093 -68.0965 -68.0933 -68.0903  -6.2934   4.4962   4.7029   5.0799
     5.1946   5.3585   6.8533   8.9941  10.4425  13.8292  20.6625  22.5454
    26.6136

     occupation numbers 
     1.0000   1.0000   1.0000   1.0000   1.0000   1.0000   1.0000   1.0000
     1.0000   1.0000   1.0000   1.0000   1.0292   0.0000   0.0000   0.0000
     0.0000

          k = 0.0000 0.1667 0.3333 (   850 PWs)   bands (ev):

  -113.9091 -68.0994 -68.0931 -68.0900  -6.0549   4.2665   4.7148   5.0405
     5.1080   5.3690   6.4910   9.1783  10.6228  14.5748  19.0344  22.7331
    26.4824

     occupation numbers 
     1.0000   1.0000   1.0000   1.0000   1.0000   1.0000   1.0000   1.0000
     1.0000   1.0000   1.0000   1.0000   1.0754   0.0000   0.0000   0.0000
     0.0000

          k = 0.0000 0.1667 0.4167 (   852 PWs)   bands (ev):

  -113.9090 -68.1015 -68.0930 -68.0899  -5.8667   3.9804   4.7328   4.9908
     5.0450   5.3790   6.3651   9.3900  10.7552  15.3379  17.6360  22.8807
    26.3498

     occupation numbers 
     1.0000   1.0000   1.0000   1.0000   1.0000   1.0000   1.0000   1.0000
     1.0000   1.0000   1.0000   1.0000   0.8242   0.0000   0.0000   0.0000
     0.0000

          k = 0.0000 0.1667-0.5000 (   856 PWs)   bands (ev):

  -113.9090 -68.1023 -68.0930 -68.0899  -5.7945   3.8547   4.7421   4.9654
     5.0222   5.3828   6.3478   9.4800  10.8037  15.9460  16.7944  22.9376
    26.2936

     occupation numbers 
     1.0000   1.0000   1.0000   1.0000   1.0000   1.0000   1.0000   1.0000
     1.0000   1.0000   1.0000   1.0000   0.6517   0.0000   0.0000   0.0000
     0.0000

          k = 0.0000 0.2500 0.2500 (   868 PWs)   bands (ev):

  -113.9091 -68.0964 -68.0964 -68.0901  -6.0944   4.4837   4.8404   5.0232
     5.1904   5.3086   6.8324   8.3544  10.5573  14.4518  20.2944  21.3982
    26.8238

     occupation numbers 
     1.0000   1.0000   1.0000   1.0000   1.0000   1.0000   1.0000   1.0000
     1.0000   1.0000   1.0000   1.0000   1.0781   0.0000   0.0000   0.0000
     0.0000

          k = 0.0000 0.2500 0.3333 (   864 PWs)   bands (ev):

  -113.9090 -68.0993 -68.0962 -68.0899  -5.8811   4.4105   4.8881   5.0277
     5.1452   5.3027   6.6064   8.2289  10.6715  14.8861  19.1083  21.3880
    26.9982

     occupation numbers 
     1.0000   1.0000   1.0000   1.0000   1.0000   1.0000   1.0000   1.0000
     1.0000   1.0000   1.0000   1.0000   1.0277   0.0000   0.0000   0.0000
     0.0000

          k = 0.0000 0.2500 0.4167 (   859 PWs)   bands (ev):

  -113.9088 -68.1013 -68.0960 -68.0897  -5.7145   4.3019   4.8873   5.0086
     5.0978   5.3143   6.4308   8.3652  10.7549  15.1121  18.1993  21.5532
    27.0917

     occupation numbers 
     1.0000   1.0000   1.0000   1.0000   1.0000   1.0000   1.0000   1.0000
     1.0000   1.0000   1.0000   1.0000   0.8252   0.0000   0.0000   0.0000
     0.0000

          k = 0.0000 0.2500-0.5000 (   854 PWs)   bands (ev):

  -113.9088 -68.1020 -68.0958 -68.0896  -5.6509   4.2459   4.8872   4.9856
     5.0794   5.3198   6.3876   8.4475  10.7854  15.1715  17.8783  21.6303
    27.1166

     occupation numbers 
     1.0000   1.0000   1.0000   1.0000   1.0000   1.0000   1.0000   1.0000
     1.0000   1.0000   1.0000   1.0000   0.7195   0.0000   0.0000   0.0000
     0.0000

          k = 0.0000 0.3333 0.3333 (   848 PWs)   bands (ev):

  -113.9088 -68.0989 -68.0989 -68.0896  -5.6968   4.4921   5.0196   5.0980
     5.1679   5.2529   6.6634   7.5879  10.7192  14.7702  19.1140  20.7317
    27.5733

     occupation numbers 
     1.0000   1.0000   1.0000   1.0000   1.0000   1.0000   1.0000   1.0000
     1.0000   1.0000   1.0000   1.0000   0.9298   0.0000   0.0000   0.0000
     0.0000

          k = 0.0000 0.3333 0.4167 (   857 PWs)   bands (ev):

  -113.9086 -68.1010 -68.0988 -68.0895  -5.5541   4.5466   5.0336   5.1508
     5.1744   5.2514   6.5290   7.4777  10.7537  14.4199  19.0021  20.7033
    27.1569

     occupation numbers 
     1.0000   1.0000   1.0000   1.0000   1.0000   1.0000   1.0000   1.0000
     1.0000   1.0000   1.0000   1.0000   0.8288   0.0000   0.0000   0.0000
     0.0000

          k = 0.0000 0.3333-0.5000 (   866 PWs)   bands (ev):

  -113.9086 -68.1020 -68.0988 -68.0895  -5.5001   4.5732   5.0442   5.1376
     5.1597   5.2579   6.4496   7.5252  10.7663  14.2364  18.9433  20.7787
    26.8871

     occupation numbers 
     1.0000   1.0000   1.0000   1.0000   1.0000   1.0000   1.0000   1.0000
     1.0000   1.0000   1.0000   1.0000   0.7871   0.0000   0.0000   0.0000
     0.0000

          k = 0.0000 0.4167 0.4167 (   860 PWs)   bands (ev):

  -113.9085 -68.1009 -68.1009 -68.0894  -5.4310   4.6787   5.0996   5.1841
     5.2119   5.4186   6.6078   6.9207  10.7524  13.7273  19.6520  20.3195
    26.4021

     occupation numbers 
     1.0000   1.0000   1.0000   1.0000   1.0000   1.0000   1.0000   1.0000
     1.0000   1.0000   1.0000   1.0000   0.8332   0.0000   0.0000   0.0000
     0.0000

          k = 0.0000 0.4167-0.5000 (   864 PWs)   bands (ev):

  -113.9085 -68.1018 -68.1009 -68.0893  -5.3846   4.7244   5.1424   5.1809
     5.2132   5.4903   6.5350   6.8522  10.7518  13.4373  19.8132  20.3214
    26.0670

     occupation numbers 
     1.0000   1.0000   1.0000   1.0000   1.0000   1.0000   1.0000   1.0000
     1.0000   1.0000   1.0000   1.0000   0.8352   0.0000   0.0000   0.0000
     0.0000

          k = 0.0000-0.5000-0.5000 (   872 PWs)   bands (ev):

  -113.9084 -68.1017 -68.1017 -68.0893  -5.3411   4.7655   5.1969   5.1969
     5.2056   5.6299   6.5876   6.5876  10.7463  13.1150  20.1787  20.1787
    25.6940

     occupation numbers 
     1.0000   1.0000   1.0000   1.0000   1.0000   1.0000   1.0000   1.0000
     1.0000   1.0000   1.0000   1.0000   0.8523   0.0000   0.0000   0.0000
     0.0000

          k = 0.0833 0.0833 0.0833 (   859 PWs)   bands (ev):

  -113.9097 -68.0916 -68.0916 -68.0916  -6.7714   4.5721   4.5721   5.3208
     5.3677   5.3677   8.0603   9.6995   9.6995  11.8290  23.5725  23.5725
    25.9282

     occupation numbers 
     1.0000   1.0000   1.0000   1.0000   1.0000   1.0000   1.0000   1.0000
     1.0000   1.0000   1.0000   1.0000   1.0000   0.0000   0.0000   0.0000
     0.0000

          k = 0.0833 0.0833 0.1667 (   849 PWs)   bands (ev):

  -113.9095 -68.0936 -68.0914 -68.0913  -6.6132   4.5925   4.5987   5.2418
     5.2714   5.3745   7.4573   9.5693   9.8939  12.6244  22.2739  23.6838
    25.6578

     occupation numbers 
     1.0000   1.0000   1.0000   1.0000   1.0000   1.0000   1.0000   1.0000
     1.0000   1.0000   1.0000   1.0000   1.0000   0.0000   0.0000   0.0000
     0.0000

          k = 0.0833 0.0833 0.2500 (   855 PWs)   bands (ev):

  -113.9094 -68.0966 -68.0912 -68.0912  -6.3830   4.4962   4.6213   5.1478
     5.1638   5.3861   6.8016   9.7000  10.1575  13.4349  20.6513  23.8171
    25.6825

     occupation numbers 
     1.0000   1.0000   1.0000   1.0000   1.0000   1.0000   1.0000   1.0000
     1.0000   1.0000   1.0000   1.0000   1.0001   0.0000   0.0000   0.0000
     0.0000

          k = 0.0833 0.0833 0.3333 (   850 PWs)   bands (ev):

  -113.9092 -68.0995 -68.0909 -68.0909  -6.1332   4.1759   4.6524   5.0305
     5.1087   5.3981   6.4381   9.9161  10.4216  14.2609  19.0289  23.9052
    25.7304

     occupation numbers 
     1.0000   1.0000   1.0000   1.0000   1.0000   1.0000   1.0000   1.0000
     1.0000   1.0000   1.0000   1.0000   1.0222   0.0000   0.0000   0.0000
     0.0000

          k = 0.0833 0.0833 0.4167 (   854 PWs)   bands (ev):

  -113.9091 -68.1016 -68.0909 -68.0908  -5.9353   3.8189   4.6784   4.9460
     5.0602   5.4071   6.3453  10.1009  10.6169  15.1739  17.5417  23.9187
    25.7456

     occupation numbers 
     1.0000   1.0000   1.0000   1.0000   1.0000   1.0000   1.0000   1.0000
     1.0000   1.0000   1.0000   1.0000   1.0781   0.0000   0.0000   0.0000
     0.0000

          k = 0.0833 0.0833-0.5000 (   858 PWs)   bands (ev):

  -113.9090 -68.1025 -68.0909 -68.0908  -5.8591   3.6692   4.6894   4.9144
     5.0398   5.4104   6.3392  10.1733  10.6890  16.2150  16.2911  23.9089
    25.7453

     occupation numbers 
     1.0000   1.0000   1.0000   1.0000   1.0000   1.0000   1.0000   1.0000
     1.0000   1.0000   1.0000   1.0001   0.9978   0.0000   0.0000   0.0000
     0.0000

          k = 0.0833 0.1667 0.1667 (   856 PWs)   bands (ev):

  -113.9094 -68.0936 -68.0935 -68.0913  -6.4637   4.6012   4.6710   5.1660
     5.2479   5.3225   7.2611   9.1717   9.9532  13.3237  22.3004  22.4860
    25.3385

     occupation numbers 
     1.0000   1.0000   1.0000   1.0000   1.0000   1.0000   1.0000   1.0000
     1.0000   1.0000   1.0000   1.0000   1.0000   0.0000   0.0000   0.0000
     0.0000

          k = 0.0833 0.1667 0.2500 (   859 PWs)   bands (ev):

  -113.9093 -68.0965 -68.0933 -68.0911  -6.2467   4.5534   4.7052   5.0871
     5.1798   5.3228   6.8518   9.0386  10.1681  14.0252  20.7393  22.4783
    25.5133

     occupation numbers 
     1.0000   1.0000   1.0000   1.0000   1.0000   1.0000   1.0000   1.0000
     1.0000   1.0000   1.0000   1.0000   1.0001   0.0000   0.0000   0.0000
     0.0000

          k = 0.0833 0.1667 0.3333 (   860 PWs)   bands (ev):

  -113.9091 -68.0994 -68.0931 -68.0909  -6.0127   4.3349   4.7221   4.9977
     5.1497   5.3402   6.5158   9.1584  10.3956  14.6993  19.1330  22.5300
    25.7720

     occupation numbers 
     1.0000   1.0000   1.0000   1.0000   1.0000   1.0000   1.0000   1.0000
     1.0000   1.0000   1.0000   1.0000   1.0152   0.0000   0.0000   0.0000
     0.0000

          k = 0.0833 0.1667 0.4167 (   857 PWs)   bands (ev):

  -113.9090 -68.1015 -68.0930 -68.0907  -5.8283   4.0590   4.7493   4.9111
     5.1242   5.3550   6.3977   9.3235  10.5671  15.3892  17.7703  22.5311
    25.9772

     occupation numbers 
     1.0000   1.0000   1.0000   1.0000   1.0000   1.0000   1.0000   1.0000
     1.0000   1.0000   1.0000   1.0000   1.0807   0.0000   0.0000   0.0000
     0.0000

          k = 0.0833 0.1667-0.5000 (   856 PWs)   bands (ev):

  -113.9089 -68.1022 -68.0929 -68.0906  -5.7576   3.9376   4.7666   4.8721
     5.1098   5.3607   6.3820   9.3960  10.6310  15.8909  17.0219  22.5217
    26.0572

     occupation numbers 
     1.0000   1.0000   1.0000   1.0000   1.0000   1.0000   1.0000   1.0000
     1.0000   1.0000   1.0000   1.0000   1.0707   0.0000   0.0000   0.0000
     0.0000

          k = 0.0833 0.2500 0.2500 (   855 PWs)   bands (ev):

  -113.9091 -68.0963 -68.0962 -68.0908  -6.0502   4.5425   4.8342   5.0274
     5.1945   5.2678   6.8053   8.4634  10.3072  14.5556  20.4504  21.2941
    25.7764

     occupation numbers 
     1.0000   1.0000   1.0000   1.0000   1.0000   1.0000   1.0000   1.0000
     1.0000   1.0000   1.0000   1.0000   1.0031   0.0000   0.0000   0.0000
     0.0000

          k = 0.0833 0.2500 0.3333 (   861 PWs)   bands (ev):

  -113.9089 -68.0992 -68.0961 -68.0906  -5.8400   4.4696   4.8761   4.9798
     5.1928   5.2749   6.6168   8.3078  10.4614  14.9302  19.2386  21.2277
    26.1564

     occupation numbers 
     1.0000   1.0000   1.0000   1.0000   1.0000   1.0000   1.0000   1.0000
     1.0000   1.0000   1.0000   1.0000   1.0367   0.0000   0.0000   0.0000
     0.0000

          k = 0.0833 0.2500 0.4167 (   859 PWs)   bands (ev):

  -113.9088 -68.1012 -68.0959 -68.0905  -5.6758   4.3598   4.8710   4.9164
     5.1843   5.2963   6.4862   8.3928  10.5796  15.1348  18.3103  21.2774
    26.5144

     occupation numbers 
     1.0000   1.0000   1.0000   1.0000   1.0000   1.0000   1.0000   1.0000
     1.0000   1.0000   1.0000   1.0000   1.0828   0.0000   0.0000   0.0000
     0.0000

          k = 0.0833 0.2500-0.5000 (   856 PWs)   bands (ev):

  -113.9087 -68.1020 -68.0958 -68.0904  -5.6132   4.3028   4.8566   4.8990
     5.1735   5.3051   6.4578   8.4544  10.6241  15.1938  17.9790  21.2940
    26.6844

     occupation numbers 
     1.0000   1.0000   1.0000   1.0000   1.0000   1.0000   1.0000   1.0000
     1.0000   1.0000   1.0000   1.0000   1.0748   0.0000   0.0000   0.0000
     0.0000

          k = 0.0833 0.3333 0.3333 (   860 PWs)   bands (ev):

  -113.9087 -68.0989 -68.0989 -68.0904  -5.6568   4.5325   4.9734   5.0104
     5.2211   5.2715   6.6719   7.7307  10.5402  14.8065  19.1786  20.5545
    26.6593

     occupation numbers 
     1.0000   1.0000   1.0000   1.0000   1.0000   1.0000   1.0000   1.0000
     1.0000   1.0000   1.0000   1.0000   1.0721   0.0000   0.0000   0.0000
     0.0000

          k = 0.0833 0.3333 0.4167 (   854 PWs)   bands (ev):

  -113.9086 -68.1009 -68.0987 -68.0902  -5.5151   4.5788   4.9298   5.0382
     5.2234   5.3198   6.6162   7.5923  10.6020  14.4805  18.9858  20.4630
    27.0550

     occupation numbers 
     1.0000   1.0000   1.0000   1.0000   1.0000   1.0000   1.0000   1.0000
     1.0000   1.0000   1.0000   1.0000   1.0823   0.0000   0.0000   0.0000
     0.0000

          k = 0.0833 0.3333-0.5000 (   858 PWs)   bands (ev):

  -113.9086 -68.1018 -68.0987 -68.0902  -5.4614   4.6097   4.8840   5.0497
     5.2109   5.3336   6.5784   7.6157  10.6258  14.3088  18.9062  20.4875
    27.5352

     occupation numbers 
     1.0000   1.0000   1.0000   1.0000   1.0000   1.0000   1.0000   1.0000
     1.0000   1.0000   1.0000   1.0000   1.0739   0.0000   0.0000   0.0000
     0.0000

          k = 0.0833 0.4167 0.4167 (   853 PWs)   bands (ev):

  -113.9085 -68.1008 -68.1007 -68.0901  -5.3916   4.7084   4.9699   5.0490
     5.2185   5.4724   6.7430   7.1128  10.6206  13.8123  19.5060  20.0919
    26.5920

     occupation numbers 
     1.0000   1.0000   1.0000   1.0000   1.0000   1.0000   1.0000   1.0000
     1.0000   1.0000   1.0000   1.0000   1.0765   0.0000   0.0000   0.0000
     0.0000

          k = 0.0833 0.4167-0.5000 (   866 PWs)   bands (ev):

  -113.9084 -68.1017 -68.1008 -68.0901  -5.3451   4.7706   4.9628   5.0601
     5.1953   5.5329   6.7384   7.0362  10.6280  13.5286  19.6378  20.0633
    26.3190

     occupation numbers 
     1.0000   1.0000   1.0000   1.0000   1.0000   1.0000   1.0000   1.0000
     1.0000   1.0000   1.0000   1.0000   1.0726   0.0000   0.0000   0.0000
     0.0000

          k = 0.0833-0.5000-0.5000 (   856 PWs)   bands (ev):

  -113.9084 -68.1015 -68.1015 -68.0900  -5.3012   4.8229   5.0417   5.0417
     5.1438   5.6309   6.8280   6.8280  10.6288  13.2094  19.9333  19.9333
    25.9880

     occupation numbers 
     1.0000   1.0000   1.0000   1.0000   1.0000   1.0000   1.0000   1.0000
     1.0000   1.0000   1.0000   1.0000   1.0721   0.0000   0.0000   0.0000
     0.0000

          k = 0.1667 0.1667 0.1667 (   868 PWs)   bands (ev):

  -113.9093 -68.0935 -68.0935 -68.0935  -6.3213   4.6885   4.6885   5.1737
     5.2154   5.2154   7.1077   9.4030   9.4030  13.8671  22.2102  22.2102
    24.1656

     occupation numbers 
     1.0000   1.0000   1.0000   1.0000   1.0000   1.0000   1.0000   1.0000
     1.0000   1.0000   1.0000   1.0000   1.0000   0.0000   0.0000   0.0000
     0.0000

          k = 0.1667 0.1667 0.2500 (   852 PWs)   bands (ev):

  -113.9091 -68.0963 -68.0932 -68.0930  -6.1154   4.6856   4.7127   5.0817
     5.1713   5.2411   6.8224   9.0556   9.7178  14.4109  20.8773  22.0374
    24.3234

     occupation numbers 
     1.0000   1.0000   1.0000   1.0000   1.0000   1.0000   1.0000   1.0000
     1.0000   1.0000   1.0000   1.0000   1.0000   0.0000   0.0000   0.0000
     0.0000

          k = 0.1667 0.1667 0.3333 (   855 PWs)   bands (ev):

  -113.9089 -68.0992 -68.0930 -68.0929  -5.8942   4.5006   4.7375   4.9588
     5.2050   5.2744   6.5735   8.9758  10.0364  14.9157  19.3568  21.7978
    24.9684

     occupation numbers 
     1.0000   1.0000   1.0000   1.0000   1.0000   1.0000   1.0000   1.0000
     1.0000   1.0000   1.0000   1.0000   1.0000   0.0000   0.0000   0.0000
     0.0000

          k = 0.1667 0.1667 0.4167 (   860 PWs)   bands (ev):

  -113.9088 -68.1014 -68.0928 -68.0928  -5.7208   4.2643   4.7578   4.8726
     5.2041   5.2999   6.4899   9.0179  10.2753  15.4007  18.1217  21.5758
    25.5900

     occupation numbers 
     1.0000   1.0000   1.0000   1.0000   1.0000   1.0000   1.0000   1.0000
     1.0000   1.0000   1.0000   1.0000   1.0016   0.0000   0.0000   0.0000
     0.0000

          k = 0.1667 0.1667-0.5000 (   852 PWs)   bands (ev):

  -113.9088 -68.1020 -68.0927 -68.0927  -5.6545   4.1591   4.7672   4.8402
     5.1950   5.3099   6.4840   9.0492  10.3644  15.6833  17.5640  21.4843
    25.8581

     occupation numbers 
     1.0000   1.0000   1.0000   1.0000   1.0000   1.0000   1.0000   1.0000
     1.0000   1.0000   1.0000   1.0000   1.0092   0.0000   0.0000   0.0000
     0.0000

          k = 0.1667 0.2500 0.2500 (   860 PWs)   bands (ev):

  -113.9090 -68.0961 -68.0961 -68.0930  -5.9264   4.6761   4.8067   5.0394
     5.1787   5.2209   6.7310   8.7564   9.7397  14.7590  20.7461  20.9853
    24.2315

     occupation numbers 
     1.0000   1.0000   1.0000   1.0000   1.0000   1.0000   1.0000   1.0000
     1.0000   1.0000   1.0000   1.0000   1.0000   0.0000   0.0000   0.0000
     0.0000

          k = 0.1667 0.2500 0.3333 (   861 PWs)   bands (ev):

  -113.9088 -68.0990 -68.0959 -68.0928  -5.7246   4.5995   4.7897   4.9792
     5.2215   5.2569   6.6400   8.5170   9.9806  15.0108  19.4927  20.7363
    24.8234

     occupation numbers 
     1.0000   1.0000   1.0000   1.0000   1.0000   1.0000   1.0000   1.0000
     1.0000   1.0000   1.0000   1.0000   1.0000   0.0000   0.0000   0.0000
     0.0000

          k = 0.1667 0.2500 0.4167 (   865 PWs)   bands (ev):

  -113.9087 -68.1011 -68.0957 -68.0926  -5.5674   4.4867   4.7209   4.9547
     5.2425   5.2695   6.6396   8.4509  10.1905  15.1690  18.5381  20.5067
    25.5617

     occupation numbers 
     1.0000   1.0000   1.0000   1.0000   1.0000   1.0000   1.0000   1.0000
     1.0000   1.0000   1.0000   1.0000   1.0002   0.0000   0.0000   0.0000
     0.0000

          k = 0.1667 0.2500-0.5000 (   860 PWs)   bands (ev):

  -113.9086 -68.1018 -68.0956 -68.0926  -5.5077   4.4275   4.6911   4.9513
     5.2285   5.2846   6.6602   8.4481  10.2725  15.2260  18.1879  20.4058
    25.9345

     occupation numbers 
     1.0000   1.0000   1.0000   1.0000   1.0000   1.0000   1.0000   1.0000
     1.0000   1.0000   1.0000   1.0000   1.0015   0.0000   0.0000   0.0000
     0.0000

          k = 0.1667 0.3333 0.3333 (   862 PWs)   bands (ev):

  -113.9086 -68.0988 -68.0987 -68.0925  -5.5448   4.5826   4.8268   4.9813
     5.2602   5.2930   6.7310   8.1060  10.1008  14.8978  19.2384  20.0517
    25.1732

     occupation numbers 
     1.0000   1.0000   1.0000   1.0000   1.0000   1.0000   1.0000   1.0000
     1.0000   1.0000   1.0000   1.0000   1.0000   0.0000   0.0000   0.0000
     0.0000

          k = 0.1667 0.3333 0.4167 (   862 PWs)   bands (ev):

  -113.9085 -68.1009 -68.0986 -68.0924  -5.4057   4.5812   4.7526   4.9913
     5.2145   5.3717   6.8581   7.9108  10.2311  14.6491  18.8593  19.7887
    25.7812

     occupation numbers 
     1.0000   1.0000   1.0000   1.0000   1.0000   1.0000   1.0000   1.0000
     1.0000   1.0000   1.0000   1.0000   1.0006   0.0000   0.0000   0.0000
     0.0000

          k = 0.1667 0.3333-0.5000 (   864 PWs)   bands (ev):

  -113.9084 -68.1016 -68.0985 -68.0924  -5.3530   4.6225   4.6636   5.0058
     5.1816   5.3969   6.9234   7.8668  10.2860  14.5138  18.7387  19.6894
    26.1754

     occupation numbers 
     1.0000   1.0000   1.0000   1.0000   1.0000   1.0000   1.0000   1.0000
     1.0000   1.0000   1.0000   1.0000   1.0020   0.0000   0.0000   0.0000
     0.0000

          k = 0.1667 0.4167 0.4167 (   863 PWs)   bands (ev):

  -113.9083 -68.1007 -68.1007 -68.0922  -5.2812   4.6275   4.7738   4.9771
     5.1238   5.5142   7.1074   7.5867  10.2922  14.0659  19.0402  19.4602
    26.1531

     occupation numbers 
     1.0000   1.0000   1.0000   1.0000   1.0000   1.0000   1.0000   1.0000
     1.0000   1.0000   1.0000   1.0000   1.0023   0.0000   0.0000   0.0000
     0.0000

          k = 0.1667 0.4167-0.5000 (   854 PWs)   bands (ev):

  -113.9083 -68.1014 -68.1006 -68.0921  -5.2342   4.6971   4.7191   4.9910
     5.0587   5.5662   7.2238   7.4929  10.3196  13.8053  19.1195  19.3502
    26.4473

     occupation numbers 
     1.0000   1.0000   1.0000   1.0000   1.0000   1.0000   1.0000   1.0000
     1.0000   1.0000   1.0000   1.0000   1.0040   0.0000   0.0000   0.0000
     0.0000

          k = 0.1667-0.5000-0.5000 (   860 PWs)   bands (ev):

  -113.9083 -68.1014 -68.1014 -68.0920  -5.1894   4.7473   4.7473   4.9653
     4.9808   5.6335   7.3705   7.3705  10.3346  13.5003  19.2570  19.2570
    26.5747

     occupation numbers 
     1.0000   1.0000   1.0000   1.0000   1.0000   1.0000   1.0000   1.0000
     1.0000   1.0000   1.0000   1.0000   1.0054   0.0000   0.0000   0.0000
     0.0000

          k = 0.2500 0.2500 0.2500 (   859 PWs)   bands (ev):

  -113.9088 -68.0959 -68.0958 -68.0958  -5.7486   4.7409   4.7409   5.1069
     5.1069   5.2670   6.6599   9.1548   9.1548  14.9328  20.5068  20.5068
    23.5552

     occupation numbers 
     1.0000   1.0000   1.0000   1.0000   1.0000   1.0000   1.0000   1.0000
     1.0000   1.0000   1.0000   1.0000   1.0000   0.0000   0.0000   0.0000
     0.0000

          k = 0.2500 0.2500 0.3333 (   862 PWs)   bands (ev):

  -113.9086 -68.0988 -68.0957 -68.0956  -5.5594   4.6510   4.6721   5.0774
     5.2128   5.2674   6.7114   8.7194   9.5634  15.0495  19.5364  19.9640
    24.0521

     occupation numbers 
     1.0000   1.0000   1.0000   1.0000   1.0000   1.0000   1.0000   1.0000
     1.0000   1.0000   1.0000   1.0000   1.0000   0.0000   0.0000   0.0000
     0.0000

          k = 0.2500 0.2500 0.4167 (   856 PWs)   bands (ev):

  -113.9085 -68.1008 -68.0954 -68.0954  -5.4126   4.5604   4.5791   5.0708
     5.2054   5.2874   6.8867   8.4574   9.8766  15.1217  18.6735  19.5263
    24.8586

     occupation numbers 
     1.0000   1.0000   1.0000   1.0000   1.0000   1.0000   1.0000   1.0000
     1.0000   1.0000   1.0000   1.0000   1.0000   0.0000   0.0000   0.0000
     0.0000

          k = 0.2500 0.2500-0.5000 (   850 PWs)   bands (ev):

  -113.9084 -68.1015 -68.0954 -68.0953  -5.3569   4.5057   4.5524   5.0702
     5.1748   5.3111   6.9864   8.3648   9.9955  15.1490  18.3451  19.3573
    25.2748

     occupation numbers 
     1.0000   1.0000   1.0000   1.0000   1.0000   1.0000   1.0000   1.0000
     1.0000   1.0000   1.0000   1.0000   1.0000   0.0000   0.0000   0.0000
     0.0000

          k = 0.2500 0.3333 0.3333 (   856 PWs)   bands (ev):

  -113.9084 -68.0985 -68.0985 -68.0953  -5.3844   4.5420   4.6297   5.1320
     5.1910   5.3095   6.9205   8.6086   9.5885  14.9998  19.0351  19.3226
    24.0601

     occupation numbers 
     1.0000   1.0000   1.0000   1.0000   1.0000   1.0000   1.0000   1.0000
     1.0000   1.0000   1.0000   1.0000   1.0000   0.0000   0.0000   0.0000
     0.0000

          k = 0.2500 0.3333 0.4167 (   861 PWs)   bands (ev):

  -113.9083 -68.1007 -68.0983 -68.0952  -5.2491   4.4761   4.5545   5.0619
     5.1575   5.4066   7.2343   8.3488   9.8173  14.8741  18.5168  18.8584
    24.4612

     occupation numbers 
     1.0000   1.0000   1.0000   1.0000   1.0000   1.0000   1.0000   1.0000
     1.0000   1.0000   1.0000   1.0000   1.0000   0.0000   0.0000   0.0000
     0.0000

          k = 0.2500 0.3333-0.5000 (   862 PWs)   bands (ev):

  -113.9083 -68.1014 -68.0983 -68.0951  -5.1978   4.4660   4.5054   5.0126
     5.1600   5.4406   7.4156   8.2082   9.9224  14.7987  18.3814  18.6253
    24.7031

     occupation numbers 
     1.0000   1.0000   1.0000   1.0000   1.0000   1.0000   1.0000   1.0000
     1.0000   1.0000   1.0000   1.0000   1.0000   0.0000   0.0000   0.0000
     0.0000

          k = 0.2500 0.4167 0.4167 (   868 PWs)   bands (ev):

  -113.9082 -68.1005 -68.1005 -68.0951  -5.1229   4.4377   4.5155   4.8896
     5.1837   5.5350   7.6166   8.1938   9.9058  14.4762  18.2884  18.5712
    24.2961

     occupation numbers 
     1.0000   1.0000   1.0000   1.0000   1.0000   1.0000   1.0000   1.0000
     1.0000   1.0000   1.0000   1.0000   1.0000   0.0000   0.0000   0.0000
     0.0000

          k = 0.2500 0.4167-0.5000 (   866 PWs)   bands (ev):

  -113.9081 -68.1013 -68.1004 -68.0950  -5.0753   4.4484   4.4816   4.8094
     5.1910   5.5827   7.8401   8.0777   9.9608  14.2702  18.3413  18.3551
    24.2596

     occupation numbers 
     1.0000   1.0000   1.0000   1.0000   1.0000   1.0000   1.0000   1.0000
     1.0000   1.0000   1.0000   1.0000   1.0000   0.0000   0.0000   0.0000
     0.0000

          k = 0.2500-0.5000-0.5000 (   864 PWs)   bands (ev):

  -113.9081 -68.1012 -68.1012 -68.0949  -5.0290   4.4704   4.4704   4.6984
     5.1995   5.6371   8.0313   8.0313   9.9887  14.0074  18.3135  18.3135
    24.0845

     occupation numbers 
     1.0000   1.0000   1.0000   1.0000   1.0000   1.0000   1.0000   1.0000
     1.0000   1.0000   1.0000   1.0000   1.0000   0.0000   0.0000   0.0000
     0.0000

          k = 0.3333 0.3333 0.3333 (   862 PWs)   bands (ev):

  -113.9083 -68.0983 -68.0983 -68.0982  -5.2145   4.4661   4.4661   5.0083
     5.3226   5.3226   7.2735   9.1285   9.1285  15.0551  18.5423  18.5423
    23.5216

     occupation numbers 
     1.0000   1.0000   1.0000   1.0000   1.0000   1.0000   1.0000   1.0000
     1.0000   1.0000   1.0000   1.0000   1.0000   0.0000   0.0000   0.0000
     0.0000

          k = 0.3333 0.3333 0.4167 (   868 PWs)   bands (ev):

  -113.9081 -68.1004 -68.0982 -68.0981  -5.0832   4.3603   4.4024   4.8315
     5.3313   5.4522   7.7070   8.7456   9.5370  15.0342  17.9315  18.0787
    23.3485

     occupation numbers 
     1.0000   1.0000   1.0000   1.0000   1.0000   1.0000   1.0000   1.0000
     1.0000   1.0000   1.0000   1.0000   1.0000   0.0000   0.0000   0.0000
     0.0000

          k = 0.3333 0.3333-0.5000 (   864 PWs)   bands (ev):

  -113.9081 -68.1012 -68.0981 -68.0980  -5.0335   4.3240   4.3763   4.7605
     5.3344   5.4976   7.9814   8.5166   9.6958  15.0038  17.6973  17.9054
    23.3152

     occupation numbers 
     1.0000   1.0000   1.0000   1.0000   1.0000   1.0000   1.0000   1.0000
     1.0000   1.0000   1.0000   1.0000   1.0000   0.0000   0.0000   0.0000
     0.0000

          k = 0.3333 0.4167 0.4167 (   868 PWs)   bands (ev):

  -113.9080 -68.1003 -68.1003 -68.0979  -4.9550   4.2823   4.3160   4.6131
     5.3965   5.5469   8.1832   8.8166   9.5701  14.9880  17.4584  17.6380
    22.5451

     occupation numbers 
     1.0000   1.0000   1.0000   1.0000   1.0000   1.0000   1.0000   1.0000
     1.0000   1.0000   1.0000   1.0000   1.0000   0.0000   0.0000   0.0000
     0.0000

          k = 0.3333 0.4167-0.5000 (   874 PWs)   bands (ev):

  -113.9080 -68.1011 -68.1002 -68.0980  -4.9066   4.2588   4.2893   4.5203
     5.4069   5.5937   8.4851   8.6702   9.6670  14.8974  17.3289  17.4917
    22.2386

     occupation numbers 
     1.0000   1.0000   1.0000   1.0000   1.0000   1.0000   1.0000   1.0000
     1.0000   1.0000   1.0000   1.0000   1.0000   0.0000   0.0000   0.0000
     0.0000

          k = 0.3333-0.5000-0.5000 (   876 PWs)   bands (ev):

  -113.9079 -68.1010 -68.1010 -68.0979  -4.8585   4.2591   4.2591   4.4048
     5.4208   5.6407   8.6999   8.6999   9.6973  14.7453  17.3269  17.3269
    21.8086

     occupation numbers 
     1.0000   1.0000   1.0000   1.0000   1.0000   1.0000   1.0000   1.0000
     1.0000   1.0000   1.0000   1.0000   1.0000   0.0000   0.0000   0.0000
     0.0000

          k = 0.4167 0.4167 0.4167 (   876 PWs)   bands (ev):

  -113.9079 -68.1002 -68.1001 -68.1001  -4.8251   4.1918   4.1918   4.3788
     5.5537   5.5537   8.6977   9.3145   9.3145  15.4059  16.9074  16.9074
    21.1893

     occupation numbers 
     1.0000   1.0000   1.0000   1.0000   1.0000   1.0000   1.0000   1.0000
     1.0000   1.0000   1.0000   1.0000   1.0000   0.0000   0.0000   0.0000
     0.0000

          k = 0.4167 0.4167-0.5000 (   878 PWs)   bands (ev):

  -113.9078 -68.1010 -68.1001 -68.1001  -4.7759   4.1497   4.1693   4.2804
     5.5559   5.6110   9.0186   9.1129   9.5121  15.5060  16.6244  16.8152
    20.6322

     occupation numbers 
     1.0000   1.0000   1.0000   1.0000   1.0000   1.0000   1.0000   1.0000
     1.0000   1.0000   1.0000   1.0000   1.0000   0.0000   0.0000   0.0000
     0.0000

          k = 0.4167-0.5000-0.5000 (   876 PWs)   bands (ev):

  -113.9078 -68.1008 -68.1008 -68.1000  -4.7263   4.1287   4.1287   4.1731
     5.5843   5.6433   9.2366   9.2366   9.5133  15.6570  16.5520  16.5520
    19.9294

     occupation numbers 
     1.0000   1.0000   1.0000   1.0000   1.0000   1.0000   1.0000   1.0000
     1.0000   1.0000   1.0000   1.0000   1.0000   0.0000   0.0000   0.0000
     0.0000

          k =-0.5000-0.5000-0.5000 (   912 PWs)   bands (ev):

  -113.9078 -68.1011 -68.1011 -68.1011  -4.6762   4.0846   4.0846   4.0846
     5.6442   5.6442   9.4514   9.4514   9.4514  16.2498  16.2498  16.2498
    19.0066

     occupation numbers 
     1.0000   1.0000   1.0000   1.0000   1.0000   1.0000   1.0000   1.0000
     1.0000   1.0000   1.0000   1.0000   1.0000   0.0000   0.0000   0.0000
     0.0000

     the Fermi energy is    10.8721 ev

!    total energy              =    -503.17355592 Ry
     estimated scf accuracy    <          4.8E-09 Ry
     smearing contrib. (-TS)   =       0.00114637 Ry
     internal energy E=F+TS    =    -503.17470229 Ry

     The total energy is F=E-TS. E is the sum of the following terms:
     one-electron contribution =    -366.75367671 Ry
     hartree contribution      =     195.55315533 Ry
     xc contribution           =     -49.60249557 Ry
     ewald contribution        =    -272.83761506 Ry
     one-center paw contrib.   =      -9.53407028 Ry
      -> PAW hartree energy AE =      25.08754086 Ry
      -> PAW hartree energy PS =     -24.97704962 Ry
      -> PAW xc energy AE      =     -16.51214505 Ry
      -> PAW xc energy PS      =       6.86758353 Ry
      -> total E_H with PAW    =     195.66364657 Ry
      -> total E_XC with PAW   =     -59.24705709 Ry

     convergence has been achieved in   9 iterations

     Forces acting on atoms (cartesian axes, Ry/au):

     atom    1 type  2   force =     0.00000000    0.00000000    0.00000000
     atom    2 type  1   force =     0.00000000    0.00000000    0.00000000
     The non-local contrib.  to forces
     atom    1 type  2   force =     0.00000000    0.00000000    0.00000000
     atom    2 type  1   force =     0.00000000    0.00000000    0.00000000
     The ionic contribution  to forces
     atom    1 type  2   force =    -0.00000000   -0.00000000   -0.00000000
     atom    2 type  1   force =     0.00000000    0.00000000    0.00000000
     The local contribution  to forces
     atom    1 type  2   force =     0.00000000    0.00000000    0.00000000
     atom    2 type  1   force =     0.00000000    0.00000000    0.00000000
     The core correction contribution to forces
     atom    1 type  2   force =     0.00000000    0.00000000    0.00000000
     atom    2 type  1   force =     0.00000000    0.00000000    0.00000000
     The Hubbard contrib.    to forces
     atom    1 type  2   force =     0.00000000    0.00000000    0.00000000
     atom    2 type  1   force =     0.00000000    0.00000000    0.00000000
     The SCF correction term to forces
     atom    1 type  2   force =     0.00000000   -0.00000000    0.00000000
     atom    2 type  1   force =     0.00000000   -0.00000000   -0.00000000

     Total force =     0.000000     Total SCF correction =     0.000000


     Computing stress (Cartesian axis) and pressure

          total   stress  (Ry/bohr**3)                   (kbar)     P=     -121.46
  -0.00082567   0.00000000   0.00000000         -121.46        0.00        0.00
   0.00000000  -0.00082567   0.00000000            0.00     -121.46        0.00
   0.00000000   0.00000000  -0.00082567            0.00        0.00     -121.46

     kinetic stress (kbar)  38699.90      0.00      0.00
                                0.00  38699.90      0.00
                                0.00      0.00  38699.90

     local   stress (kbar)   4598.49     -0.00      0.00
                               -0.00   4598.49      0.00
                                0.00      0.00   4598.49

     nonloc. stress (kbar)   -883.70      0.00      0.00
                                0.00   -883.70      0.00
                                0.00      0.00   -883.70

     hartree stress (kbar)  66666.48      0.00      0.00
                                0.00  66666.48     -0.00
                                0.00     -0.00  66666.48

     exc-cor stress (kbar) -15754.82      0.00      0.00
                                0.00 -15754.82     -0.00
                                0.00     -0.00 -15754.82

     corecor stress (kbar)   -434.10      0.00     -0.00
                                0.00   -434.10     -0.00
                               -0.00     -0.00   -434.10

     ewald   stress (kbar) -93013.70      0.00     -0.00
                                0.00 -93013.70      0.00
                               -0.00      0.00 -93013.70

     hubbard stress (kbar)      0.00      0.00      0.00
                                0.00      0.00      0.00
                                0.00      0.00      0.00

     DFT-D   stress (kbar)      0.00      0.00      0.00
                                0.00      0.00      0.00
                                0.00      0.00      0.00

     XDM     stress (kbar)      0.00      0.00      0.00
                                0.00      0.00      0.00
                                0.00      0.00      0.00

     dft-nl  stress (kbar)      0.00      0.00      0.00
                                0.00      0.00      0.00
                                0.00      0.00      0.00

     TS-vdW  stress (kbar)      0.00      0.00      0.00
                                0.00      0.00      0.00
                                0.00      0.00      0.00

     MDB     stress (kbar)      0.00      0.00      0.00
                                0.00      0.00      0.00
                                0.00      0.00      0.00

     3D-RISM stress (kbar)      0.00      0.00      0.00
                                0.00      0.00      0.00
                                0.00      0.00      0.00


     Writing all to output data dir ./temp_cubic/aiida.save/ :
     XML data file, charge density, pseudopotentials, collected wavefunctions

     init_run     :    398.79s CPU     17.09s WALL (       1 calls)
     electrons    :   3766.32s CPU    159.09s WALL (       1 calls)
     forces       :     26.38s CPU      1.13s WALL (       1 calls)
     stress       :     13.02s CPU      0.78s WALL (       1 calls)

     Called by init_run:
     wfcinit      :    392.20s CPU     16.57s WALL (       1 calls)
     wfcinit:atom :      7.97s CPU      0.32s WALL (      84 calls)
     wfcinit:wfcr :    378.39s CPU     15.94s WALL (      84 calls)
     potinit      :      2.82s CPU      0.14s WALL (       1 calls)
     hinit0       :      1.65s CPU      0.26s WALL (       1 calls)

     Called by electrons:
     c_bands      :   3171.61s CPU    133.68s WALL (       9 calls)
     sum_band     :    575.60s CPU     24.40s WALL (       9 calls)
     v_of_rho     :      2.94s CPU      0.14s WALL (      10 calls)
     v_h          :      0.79s CPU      0.04s WALL (      10 calls)
     v_xc         :      2.27s CPU      0.11s WALL (      12 calls)
     newd         :      7.57s CPU      0.53s WALL (      10 calls)
     PAW_pot      :     10.57s CPU      0.44s WALL (      10 calls)
     mix_rho      :      0.52s CPU      0.03s WALL (       9 calls)

     Called by c_bands:
     init_us_2    :     39.92s CPU      1.84s WALL (    1764 calls)
     cegterg      :   3074.30s CPU    129.63s WALL (     756 calls)

     Called by sum_band:
     sum_band:wei :      0.49s CPU      0.02s WALL (       9 calls)
     sum_band:loo :    571.32s CPU     23.89s WALL (       9 calls)
     sum_band:buf :      0.51s CPU      0.03s WALL (     756 calls)
     sum_band:ini :     18.58s CPU      0.76s WALL (     756 calls)
     sum_band:cal :     12.32s CPU      0.46s WALL (     756 calls)
     sum_band:bec :     24.53s CPU      1.11s WALL (     756 calls)
     addusdens    :      3.53s CPU      0.44s WALL (       9 calls)
                                        0.00s GPU  (       9 calls)
     addusd:skk   :      0.01s CPU      0.00s WALL (      18 calls)
                                        0.00s GPU  (      18 calls)

     Called by *egterg:
     cdiaghg      :     15.58s CPU      0.70s WALL (    2398 calls)
     cegterg:over :     43.23s CPU      1.64s WALL (    1642 calls)
     cegterg:upda :     50.93s CPU      2.31s WALL (    1642 calls)
     cegterg:last :     69.11s CPU      2.44s WALL (    1512 calls)
     h_psi        :   3064.30s CPU    129.74s WALL (    2482 calls)
     s_psi        :     31.88s CPU      1.32s WALL (    2482 calls)
     g_psi        :     46.44s CPU      2.02s WALL (    1642 calls)

     Called by h_psi:
     h_psi:calbec :     24.80s CPU      1.27s WALL (    2482 calls)
     vloc_psi     :   2930.45s CPU    123.69s WALL (    2482 calls)
     add_vuspsi   :     30.01s CPU      1.30s WALL (    2482 calls)

     General routines
     calbec       :     43.60s CPU      1.98s WALL (    3658 calls)
     fft          :      1.03s CPU      0.07s WALL (     153 calls)
     ffts         :      0.00s CPU      0.00s WALL (      19 calls)
     fftw         :    173.18s CPU      7.44s WALL (   76238 calls)
     interpolate  :      0.03s CPU      0.01s WALL (      10 calls)

     Parallel routines

     PAW routines
     PAW_pot      :     10.57s CPU      0.44s WALL (      10 calls)
     PAW_symme    :      0.00s CPU      0.00s WALL (      19 calls)

     PWSCF        :      1h10m CPU   3m 0.95s WALL


   This run was terminated on:  21:35:42   7Jun2024            

=------------------------------------------------------------------------------=
   JOB DONE.
=------------------------------------------------------------------------------=
