
     Program PWSCF v.7.3.1 starts on  8Jun2024 at 23:16:10 

     This program is part of the open-source Quantum ESPRESSO suite
     for quantum simulation of materials; please cite
         "P. Giannozzi et al., J. Phys.:Condens. Matter 21 395502 (2009);
         "P. Giannozzi et al., J. Phys.:Condens. Matter 29 465901 (2017);
         "P. Giannozzi et al., J. Chem. Phys. 152 154105 (2020);
          URL http://www.quantum-espresso.org", 
     in publications or presentations arising from this work. More details at
     http://www.quantum-espresso.org/quote

     Parallel version (MPI & OpenMP), running on      24 processor cores
     Number of MPI processes:                 1
     Threads/MPI process:                    24

     MPI processes distributed on     1 nodes
     4734 MiB available memory on the printing compute node when the environment starts

     Waiting for input...
     Reading input from standard input

     Current dimensions of program PWSCF are:
     Max number of different atomic species (ntypx) = 10
     Max number of k-points (npk) =  40000
     Max angular momentum in pseudopotentials (lmaxx) =  4

     File ./temp_cubic/aiida.update deleted, as requested

     File ./temp_cubic/aiida.bfgs deleted, as requested
     file O.pbe-n-kjpaw_psl.0.1.UPF: wavefunction(s)  2P renormalized
     Message from routine setup:
     using ibrav=0 with symmetry is DISCOURAGED, use correct ibrav instead

     Subspace diagonalization in iterative solution of the eigenvalue problem:
     a serial algorithm will be used


     G-vector sticks info
     --------------------
     sticks:   dense  smooth     PW     G-vecs:    dense   smooth      PW
     Sum         829     421    137                17845     6355    1213

     Using Slab Decomposition



     bravais-lattice index     =            0
     lattice parameter (alat)  =       5.0869  a.u.
     unit-cell volume          =     131.6291 (a.u.)^3
     number of atoms/cell      =            1
     number of atomic types    =            2
     number of electrons       =        20.00
     number of Kohn-Sham states=           14
     kinetic-energy cutoff     =      50.0000  Ry
     charge density cutoff     =     400.0000  Ry
     scf convergence threshold =      1.0E-08
     mixing beta               =       0.4000
     number of iterations used =            8  plain     mixing
     energy convergence thresh.=      2.0E-05
     force convergence thresh. =      1.0E-04
     press convergence thresh. =      5.0E-01
     Exchange-correlation= SLA  PW   PBE  PBE
                           (   1   4   3   4   0   0   0)
     nstep                     =           50


     celldm(1)=   5.086871  celldm(2)=   0.000000  celldm(3)=   0.000000
     celldm(4)=   0.000000  celldm(5)=   0.000000  celldm(6)=   0.000000

     crystal axes: (cart. coord. in units of alat)
               a(1) = (   1.000000   0.000000   0.000000 )  
               a(2) = (   0.000000   1.000000   0.000000 )  
               a(3) = (   0.000000   0.000000   1.000000 )  

     reciprocal axes: (cart. coord. in units 2 pi/alat)
               b(1) = (  1.000000  0.000000  0.000000 )  
               b(2) = (  0.000000  1.000000  0.000000 )  
               b(3) = (  0.000000  0.000000  1.000000 )  


     PseudoPot. # 1 for O  read from file:
     ../SSSP_1.3.0_PBE_efficiency/O.pbe-n-kjpaw_psl.0.1.UPF
     MD5 check sum: 0234752ac141de4415c5fc33072bef88
     Pseudo is Projector augmented-wave + core cor, Zval =  6.0
     Generated using "atomic" code by A. Dal Corso  v.5.0.99 svn rev. 10869
     Shape of augmentation charge: BESSEL
     Using radial grid of 1095 points,  4 beta functions with: 
                l(1) =   0
                l(2) =   0
                l(3) =   1
                l(4) =   1
     Q(r) pseudized with 0 coefficients 


     PseudoPot. # 2 for Zn read from file:
     ../SSSP_1.3.0_PBE_efficiency/Zn_pbe_v1.uspp.F.UPF
     MD5 check sum: df62231357ef9e81f77b2b3087fa5675
     Pseudo is Ultrasoft, Zval = 20.0
     Generated by new atomic code, or converted to UPF format
     Using radial grid of  943 points,  6 beta functions with: 
                l(1) =   0
                l(2) =   0
                l(3) =   1
                l(4) =   1
                l(5) =   2
                l(6) =   2
     Q(r) pseudized with  8 coefficients,  rinner =    1.100   1.100   1.100
                                                       1.100   1.100

     atomic species   valence    mass     pseudopotential
     O                 6.00    15.99940     O ( 1.00)
     Zn               20.00    65.38000     Zn( 1.00)

     48 Sym. Ops., with inversion, found


                                    s                        frac. trans.

      isym =  1     identity                                     

 cryst.   s( 1) = (     1          0          0      )
                  (     0          1          0      )
                  (     0          0          1      )

 cart.    s( 1) = (  1.0000000  0.0000000  0.0000000 )
                  (  0.0000000  1.0000000  0.0000000 )
                  (  0.0000000  0.0000000  1.0000000 )


      isym =  2     180 deg rotation - cart. axis [0,0,1]        

 cryst.   s( 2) = (    -1          0          0      )
                  (     0         -1          0      )
                  (     0          0          1      )

 cart.    s( 2) = ( -1.0000000  0.0000000  0.0000000 )
                  (  0.0000000 -1.0000000  0.0000000 )
                  (  0.0000000  0.0000000  1.0000000 )


      isym =  3     180 deg rotation - cart. axis [0,1,0]        

 cryst.   s( 3) = (    -1          0          0      )
                  (     0          1          0      )
                  (     0          0         -1      )

 cart.    s( 3) = ( -1.0000000  0.0000000  0.0000000 )
                  (  0.0000000  1.0000000  0.0000000 )
                  (  0.0000000  0.0000000 -1.0000000 )


      isym =  4     180 deg rotation - cart. axis [1,0,0]        

 cryst.   s( 4) = (     1          0          0      )
                  (     0         -1          0      )
                  (     0          0         -1      )

 cart.    s( 4) = (  1.0000000  0.0000000  0.0000000 )
                  (  0.0000000 -1.0000000  0.0000000 )
                  (  0.0000000  0.0000000 -1.0000000 )


      isym =  5     180 deg rotation - cart. axis [1,1,0]        

 cryst.   s( 5) = (     0          1          0      )
                  (     1          0          0      )
                  (     0          0         -1      )

 cart.    s( 5) = (  0.0000000  1.0000000  0.0000000 )
                  (  1.0000000  0.0000000  0.0000000 )
                  (  0.0000000  0.0000000 -1.0000000 )


      isym =  6     180 deg rotation - cart. axis [1,-1,0]       

 cryst.   s( 6) = (     0         -1          0      )
                  (    -1          0          0      )
                  (     0          0         -1      )

 cart.    s( 6) = (  0.0000000 -1.0000000  0.0000000 )
                  ( -1.0000000  0.0000000  0.0000000 )
                  (  0.0000000  0.0000000 -1.0000000 )


      isym =  7      90 deg rotation - cart. axis [0,0,-1]       

 cryst.   s( 7) = (     0         -1          0      )
                  (     1          0          0      )
                  (     0          0          1      )

 cart.    s( 7) = (  0.0000000  1.0000000  0.0000000 )
                  ( -1.0000000  0.0000000  0.0000000 )
                  (  0.0000000  0.0000000  1.0000000 )


      isym =  8      90 deg rotation - cart. axis [0,0,1]        

 cryst.   s( 8) = (     0          1          0      )
                  (    -1          0          0      )
                  (     0          0          1      )

 cart.    s( 8) = (  0.0000000 -1.0000000  0.0000000 )
                  (  1.0000000  0.0000000  0.0000000 )
                  (  0.0000000  0.0000000  1.0000000 )


      isym =  9     180 deg rotation - cart. axis [1,0,1]        

 cryst.   s( 9) = (     0          0          1      )
                  (     0         -1          0      )
                  (     1          0          0      )

 cart.    s( 9) = (  0.0000000  0.0000000  1.0000000 )
                  (  0.0000000 -1.0000000  0.0000000 )
                  (  1.0000000  0.0000000  0.0000000 )


      isym = 10     180 deg rotation - cart. axis [-1,0,1]       

 cryst.   s(10) = (     0          0         -1      )
                  (     0         -1          0      )
                  (    -1          0          0      )

 cart.    s(10) = (  0.0000000  0.0000000 -1.0000000 )
                  (  0.0000000 -1.0000000  0.0000000 )
                  ( -1.0000000  0.0000000  0.0000000 )


      isym = 11      90 deg rotation - cart. axis [0,1,0]        

 cryst.   s(11) = (     0          0         -1      )
                  (     0          1          0      )
                  (     1          0          0      )

 cart.    s(11) = (  0.0000000  0.0000000  1.0000000 )
                  (  0.0000000  1.0000000  0.0000000 )
                  ( -1.0000000  0.0000000  0.0000000 )


      isym = 12      90 deg rotation - cart. axis [0,-1,0]       

 cryst.   s(12) = (     0          0          1      )
                  (     0          1          0      )
                  (    -1          0          0      )

 cart.    s(12) = (  0.0000000  0.0000000 -1.0000000 )
                  (  0.0000000  1.0000000  0.0000000 )
                  (  1.0000000  0.0000000  0.0000000 )


      isym = 13     180 deg rotation - cart. axis [0,1,1]        

 cryst.   s(13) = (    -1          0          0      )
                  (     0          0          1      )
                  (     0          1          0      )

 cart.    s(13) = ( -1.0000000  0.0000000  0.0000000 )
                  (  0.0000000  0.0000000  1.0000000 )
                  (  0.0000000  1.0000000  0.0000000 )


      isym = 14     180 deg rotation - cart. axis [0,1,-1]       

 cryst.   s(14) = (    -1          0          0      )
                  (     0          0         -1      )
                  (     0         -1          0      )

 cart.    s(14) = ( -1.0000000  0.0000000  0.0000000 )
                  (  0.0000000  0.0000000 -1.0000000 )
                  (  0.0000000 -1.0000000  0.0000000 )


      isym = 15      90 deg rotation - cart. axis [-1,0,0]       

 cryst.   s(15) = (     1          0          0      )
                  (     0          0         -1      )
                  (     0          1          0      )

 cart.    s(15) = (  1.0000000  0.0000000  0.0000000 )
                  (  0.0000000  0.0000000  1.0000000 )
                  (  0.0000000 -1.0000000  0.0000000 )


      isym = 16      90 deg rotation - cart. axis [1,0,0]        

 cryst.   s(16) = (     1          0          0      )
                  (     0          0          1      )
                  (     0         -1          0      )

 cart.    s(16) = (  1.0000000  0.0000000  0.0000000 )
                  (  0.0000000  0.0000000 -1.0000000 )
                  (  0.0000000  1.0000000  0.0000000 )


      isym = 17     120 deg rotation - cart. axis [-1,-1,-1]     

 cryst.   s(17) = (     0          0          1      )
                  (     1          0          0      )
                  (     0          1          0      )

 cart.    s(17) = (  0.0000000  1.0000000  0.0000000 )
                  (  0.0000000  0.0000000  1.0000000 )
                  (  1.0000000  0.0000000  0.0000000 )


      isym = 18     120 deg rotation - cart. axis [-1,1,1]       

 cryst.   s(18) = (     0          0         -1      )
                  (    -1          0          0      )
                  (     0          1          0      )

 cart.    s(18) = (  0.0000000 -1.0000000  0.0000000 )
                  (  0.0000000  0.0000000  1.0000000 )
                  ( -1.0000000  0.0000000  0.0000000 )


      isym = 19     120 deg rotation - cart. axis [1,1,-1]       

 cryst.   s(19) = (     0          0         -1      )
                  (     1          0          0      )
                  (     0         -1          0      )

 cart.    s(19) = (  0.0000000  1.0000000  0.0000000 )
                  (  0.0000000  0.0000000 -1.0000000 )
                  ( -1.0000000  0.0000000  0.0000000 )


      isym = 20     120 deg rotation - cart. axis [1,-1,1]       

 cryst.   s(20) = (     0          0          1      )
                  (    -1          0          0      )
                  (     0         -1          0      )

 cart.    s(20) = (  0.0000000 -1.0000000  0.0000000 )
                  (  0.0000000  0.0000000 -1.0000000 )
                  (  1.0000000  0.0000000  0.0000000 )


      isym = 21     120 deg rotation - cart. axis [1,1,1]        

 cryst.   s(21) = (     0          1          0      )
                  (     0          0          1      )
                  (     1          0          0      )

 cart.    s(21) = (  0.0000000  0.0000000  1.0000000 )
                  (  1.0000000  0.0000000  0.0000000 )
                  (  0.0000000  1.0000000  0.0000000 )


      isym = 22     120 deg rotation - cart. axis [-1,1,-1]      

 cryst.   s(22) = (     0         -1          0      )
                  (     0          0         -1      )
                  (     1          0          0      )

 cart.    s(22) = (  0.0000000  0.0000000  1.0000000 )
                  ( -1.0000000  0.0000000  0.0000000 )
                  (  0.0000000 -1.0000000  0.0000000 )


      isym = 23     120 deg rotation - cart. axis [1,-1,-1]      

 cryst.   s(23) = (     0         -1          0      )
                  (     0          0          1      )
                  (    -1          0          0      )

 cart.    s(23) = (  0.0000000  0.0000000 -1.0000000 )
                  ( -1.0000000  0.0000000  0.0000000 )
                  (  0.0000000  1.0000000  0.0000000 )


      isym = 24     120 deg rotation - cart. axis [-1,-1,1]      

 cryst.   s(24) = (     0          1          0      )
                  (     0          0         -1      )
                  (    -1          0          0      )

 cart.    s(24) = (  0.0000000  0.0000000 -1.0000000 )
                  (  1.0000000  0.0000000  0.0000000 )
                  (  0.0000000 -1.0000000  0.0000000 )


      isym = 25     inversion                                    

 cryst.   s(25) = (    -1          0          0      )
                  (     0         -1          0      )
                  (     0          0         -1      )

 cart.    s(25) = ( -1.0000000  0.0000000  0.0000000 )
                  (  0.0000000 -1.0000000  0.0000000 )
                  (  0.0000000  0.0000000 -1.0000000 )


      isym = 26     inv. 180 deg rotation - cart. axis [0,0,1]   

 cryst.   s(26) = (     1          0          0      )
                  (     0          1          0      )
                  (     0          0         -1      )

 cart.    s(26) = (  1.0000000  0.0000000  0.0000000 )
                  (  0.0000000  1.0000000  0.0000000 )
                  (  0.0000000  0.0000000 -1.0000000 )


      isym = 27     inv. 180 deg rotation - cart. axis [0,1,0]   

 cryst.   s(27) = (     1          0          0      )
                  (     0         -1          0      )
                  (     0          0          1      )

 cart.    s(27) = (  1.0000000  0.0000000  0.0000000 )
                  (  0.0000000 -1.0000000  0.0000000 )
                  (  0.0000000  0.0000000  1.0000000 )


      isym = 28     inv. 180 deg rotation - cart. axis [1,0,0]   

 cryst.   s(28) = (    -1          0          0      )
                  (     0          1          0      )
                  (     0          0          1      )

 cart.    s(28) = ( -1.0000000  0.0000000  0.0000000 )
                  (  0.0000000  1.0000000  0.0000000 )
                  (  0.0000000  0.0000000  1.0000000 )


      isym = 29     inv. 180 deg rotation - cart. axis [1,1,0]   

 cryst.   s(29) = (     0         -1          0      )
                  (    -1          0          0      )
                  (     0          0          1      )

 cart.    s(29) = (  0.0000000 -1.0000000  0.0000000 )
                  ( -1.0000000  0.0000000  0.0000000 )
                  (  0.0000000  0.0000000  1.0000000 )


      isym = 30     inv. 180 deg rotation - cart. axis [1,-1,0]  

 cryst.   s(30) = (     0          1          0      )
                  (     1          0          0      )
                  (     0          0          1      )

 cart.    s(30) = (  0.0000000  1.0000000  0.0000000 )
                  (  1.0000000  0.0000000  0.0000000 )
                  (  0.0000000  0.0000000  1.0000000 )


      isym = 31     inv.  90 deg rotation - cart. axis [0,0,-1]  

 cryst.   s(31) = (     0          1          0      )
                  (    -1          0          0      )
                  (     0          0         -1      )

 cart.    s(31) = (  0.0000000 -1.0000000  0.0000000 )
                  (  1.0000000  0.0000000  0.0000000 )
                  (  0.0000000  0.0000000 -1.0000000 )


      isym = 32     inv.  90 deg rotation - cart. axis [0,0,1]   

 cryst.   s(32) = (     0         -1          0      )
                  (     1          0          0      )
                  (     0          0         -1      )

 cart.    s(32) = (  0.0000000  1.0000000  0.0000000 )
                  ( -1.0000000  0.0000000  0.0000000 )
                  (  0.0000000  0.0000000 -1.0000000 )


      isym = 33     inv. 180 deg rotation - cart. axis [1,0,1]   

 cryst.   s(33) = (     0          0         -1      )
                  (     0          1          0      )
                  (    -1          0          0      )

 cart.    s(33) = (  0.0000000  0.0000000 -1.0000000 )
                  (  0.0000000  1.0000000  0.0000000 )
                  ( -1.0000000  0.0000000  0.0000000 )


      isym = 34     inv. 180 deg rotation - cart. axis [-1,0,1]  

 cryst.   s(34) = (     0          0          1      )
                  (     0          1          0      )
                  (     1          0          0      )

 cart.    s(34) = (  0.0000000  0.0000000  1.0000000 )
                  (  0.0000000  1.0000000  0.0000000 )
                  (  1.0000000  0.0000000  0.0000000 )


      isym = 35     inv.  90 deg rotation - cart. axis [0,1,0]   

 cryst.   s(35) = (     0          0          1      )
                  (     0         -1          0      )
                  (    -1          0          0      )

 cart.    s(35) = (  0.0000000  0.0000000 -1.0000000 )
                  (  0.0000000 -1.0000000  0.0000000 )
                  (  1.0000000  0.0000000  0.0000000 )


      isym = 36     inv.  90 deg rotation - cart. axis [0,-1,0]  

 cryst.   s(36) = (     0          0         -1      )
                  (     0         -1          0      )
                  (     1          0          0      )

 cart.    s(36) = (  0.0000000  0.0000000  1.0000000 )
                  (  0.0000000 -1.0000000  0.0000000 )
                  ( -1.0000000  0.0000000  0.0000000 )


      isym = 37     inv. 180 deg rotation - cart. axis [0,1,1]   

 cryst.   s(37) = (     1          0          0      )
                  (     0          0         -1      )
                  (     0         -1          0      )

 cart.    s(37) = (  1.0000000  0.0000000  0.0000000 )
                  (  0.0000000  0.0000000 -1.0000000 )
                  (  0.0000000 -1.0000000  0.0000000 )


      isym = 38     inv. 180 deg rotation - cart. axis [0,1,-1]  

 cryst.   s(38) = (     1          0          0      )
                  (     0          0          1      )
                  (     0          1          0      )

 cart.    s(38) = (  1.0000000  0.0000000  0.0000000 )
                  (  0.0000000  0.0000000  1.0000000 )
                  (  0.0000000  1.0000000  0.0000000 )


      isym = 39     inv.  90 deg rotation - cart. axis [-1,0,0]  

 cryst.   s(39) = (    -1          0          0      )
                  (     0          0          1      )
                  (     0         -1          0      )

 cart.    s(39) = ( -1.0000000  0.0000000  0.0000000 )
                  (  0.0000000  0.0000000 -1.0000000 )
                  (  0.0000000  1.0000000  0.0000000 )


      isym = 40     inv.  90 deg rotation - cart. axis [1,0,0]   

 cryst.   s(40) = (    -1          0          0      )
                  (     0          0         -1      )
                  (     0          1          0      )

 cart.    s(40) = ( -1.0000000  0.0000000  0.0000000 )
                  (  0.0000000  0.0000000  1.0000000 )
                  (  0.0000000 -1.0000000  0.0000000 )


      isym = 41     inv. 120 deg rotation - cart. axis [-1,-1,-1]

 cryst.   s(41) = (     0          0         -1      )
                  (    -1          0          0      )
                  (     0         -1          0      )

 cart.    s(41) = (  0.0000000 -1.0000000  0.0000000 )
                  (  0.0000000  0.0000000 -1.0000000 )
                  ( -1.0000000  0.0000000  0.0000000 )


      isym = 42     inv. 120 deg rotation - cart. axis [-1,1,1]  

 cryst.   s(42) = (     0          0          1      )
                  (     1          0          0      )
                  (     0         -1          0      )

 cart.    s(42) = (  0.0000000  1.0000000  0.0000000 )
                  (  0.0000000  0.0000000 -1.0000000 )
                  (  1.0000000  0.0000000  0.0000000 )


      isym = 43     inv. 120 deg rotation - cart. axis [1,1,-1]  

 cryst.   s(43) = (     0          0          1      )
                  (    -1          0          0      )
                  (     0          1          0      )

 cart.    s(43) = (  0.0000000 -1.0000000  0.0000000 )
                  (  0.0000000  0.0000000  1.0000000 )
                  (  1.0000000  0.0000000  0.0000000 )


      isym = 44     inv. 120 deg rotation - cart. axis [1,-1,1]  

 cryst.   s(44) = (     0          0         -1      )
                  (     1          0          0      )
                  (     0          1          0      )

 cart.    s(44) = (  0.0000000  1.0000000  0.0000000 )
                  (  0.0000000  0.0000000  1.0000000 )
                  ( -1.0000000  0.0000000  0.0000000 )


      isym = 45     inv. 120 deg rotation - cart. axis [1,1,1]   

 cryst.   s(45) = (     0         -1          0      )
                  (     0          0         -1      )
                  (    -1          0          0      )

 cart.    s(45) = (  0.0000000  0.0000000 -1.0000000 )
                  ( -1.0000000  0.0000000  0.0000000 )
                  (  0.0000000 -1.0000000  0.0000000 )


      isym = 46     inv. 120 deg rotation - cart. axis [-1,1,-1] 

 cryst.   s(46) = (     0          1          0      )
                  (     0          0          1      )
                  (    -1          0          0      )

 cart.    s(46) = (  0.0000000  0.0000000 -1.0000000 )
                  (  1.0000000  0.0000000  0.0000000 )
                  (  0.0000000  1.0000000  0.0000000 )


      isym = 47     inv. 120 deg rotation - cart. axis [1,-1,-1] 

 cryst.   s(47) = (     0          1          0      )
                  (     0          0         -1      )
                  (     1          0          0      )

 cart.    s(47) = (  0.0000000  0.0000000  1.0000000 )
                  (  1.0000000  0.0000000  0.0000000 )
                  (  0.0000000 -1.0000000  0.0000000 )


      isym = 48     inv. 120 deg rotation - cart. axis [-1,-1,1] 

 cryst.   s(48) = (     0         -1          0      )
                  (     0          0          1      )
                  (     1          0          0      )

 cart.    s(48) = (  0.0000000  0.0000000  1.0000000 )
                  ( -1.0000000  0.0000000  0.0000000 )
                  (  0.0000000  1.0000000  0.0000000 )


   Cartesian axes

     site n.     atom                  positions (alat units)
         1        Zn     tau(   1) = (   0.0000000   0.0000000   0.0000000  )

   Crystallographic axes

     site n.     atom                  positions (cryst. coord.)
         1        Zn     tau(   1) = (  0.0000000  0.0000000  0.0000000  )

     number of k points=    84  Marzari-Vanderbilt smearing, width (Ry)=  0.0147
                       cart. coord. in units 2pi/alat
        k(    1) = (   0.0000000   0.0000000   0.0000000), wk =   0.0011574
        k(    2) = (   0.0000000   0.0000000   0.0833333), wk =   0.0069444
        k(    3) = (   0.0000000   0.0000000   0.1666667), wk =   0.0069444
        k(    4) = (   0.0000000   0.0000000   0.2500000), wk =   0.0069444
        k(    5) = (   0.0000000   0.0000000   0.3333333), wk =   0.0069444
        k(    6) = (   0.0000000   0.0000000   0.4166667), wk =   0.0069444
        k(    7) = (   0.0000000   0.0000000  -0.5000000), wk =   0.0034722
        k(    8) = (   0.0000000   0.0833333   0.0833333), wk =   0.0138889
        k(    9) = (   0.0000000   0.0833333   0.1666667), wk =   0.0277778
        k(   10) = (   0.0000000   0.0833333   0.2500000), wk =   0.0277778
        k(   11) = (   0.0000000   0.0833333   0.3333333), wk =   0.0277778
        k(   12) = (   0.0000000   0.0833333   0.4166667), wk =   0.0277778
        k(   13) = (   0.0000000   0.0833333  -0.5000000), wk =   0.0138889
        k(   14) = (   0.0000000   0.1666667   0.1666667), wk =   0.0138889
        k(   15) = (   0.0000000   0.1666667   0.2500000), wk =   0.0277778
        k(   16) = (   0.0000000   0.1666667   0.3333333), wk =   0.0277778
        k(   17) = (   0.0000000   0.1666667   0.4166667), wk =   0.0277778
        k(   18) = (   0.0000000   0.1666667  -0.5000000), wk =   0.0138889
        k(   19) = (   0.0000000   0.2500000   0.2500000), wk =   0.0138889
        k(   20) = (   0.0000000   0.2500000   0.3333333), wk =   0.0277778
        k(   21) = (   0.0000000   0.2500000   0.4166667), wk =   0.0277778
        k(   22) = (   0.0000000   0.2500000  -0.5000000), wk =   0.0138889
        k(   23) = (   0.0000000   0.3333333   0.3333333), wk =   0.0138889
        k(   24) = (   0.0000000   0.3333333   0.4166667), wk =   0.0277778
        k(   25) = (   0.0000000   0.3333333  -0.5000000), wk =   0.0138889
        k(   26) = (   0.0000000   0.4166667   0.4166667), wk =   0.0138889
        k(   27) = (   0.0000000   0.4166667  -0.5000000), wk =   0.0138889
        k(   28) = (   0.0000000  -0.5000000  -0.5000000), wk =   0.0034722
        k(   29) = (   0.0833333   0.0833333   0.0833333), wk =   0.0092593
        k(   30) = (   0.0833333   0.0833333   0.1666667), wk =   0.0277778
        k(   31) = (   0.0833333   0.0833333   0.2500000), wk =   0.0277778
        k(   32) = (   0.0833333   0.0833333   0.3333333), wk =   0.0277778
        k(   33) = (   0.0833333   0.0833333   0.4166667), wk =   0.0277778
        k(   34) = (   0.0833333   0.0833333  -0.5000000), wk =   0.0138889
        k(   35) = (   0.0833333   0.1666667   0.1666667), wk =   0.0277778
        k(   36) = (   0.0833333   0.1666667   0.2500000), wk =   0.0555556
        k(   37) = (   0.0833333   0.1666667   0.3333333), wk =   0.0555556
        k(   38) = (   0.0833333   0.1666667   0.4166667), wk =   0.0555556
        k(   39) = (   0.0833333   0.1666667  -0.5000000), wk =   0.0277778
        k(   40) = (   0.0833333   0.2500000   0.2500000), wk =   0.0277778
        k(   41) = (   0.0833333   0.2500000   0.3333333), wk =   0.0555556
        k(   42) = (   0.0833333   0.2500000   0.4166667), wk =   0.0555556
        k(   43) = (   0.0833333   0.2500000  -0.5000000), wk =   0.0277778
        k(   44) = (   0.0833333   0.3333333   0.3333333), wk =   0.0277778
        k(   45) = (   0.0833333   0.3333333   0.4166667), wk =   0.0555556
        k(   46) = (   0.0833333   0.3333333  -0.5000000), wk =   0.0277778
        k(   47) = (   0.0833333   0.4166667   0.4166667), wk =   0.0277778
        k(   48) = (   0.0833333   0.4166667  -0.5000000), wk =   0.0277778
        k(   49) = (   0.0833333  -0.5000000  -0.5000000), wk =   0.0069444
        k(   50) = (   0.1666667   0.1666667   0.1666667), wk =   0.0092593
        k(   51) = (   0.1666667   0.1666667   0.2500000), wk =   0.0277778
        k(   52) = (   0.1666667   0.1666667   0.3333333), wk =   0.0277778
        k(   53) = (   0.1666667   0.1666667   0.4166667), wk =   0.0277778
        k(   54) = (   0.1666667   0.1666667  -0.5000000), wk =   0.0138889
        k(   55) = (   0.1666667   0.2500000   0.2500000), wk =   0.0277778
        k(   56) = (   0.1666667   0.2500000   0.3333333), wk =   0.0555556
        k(   57) = (   0.1666667   0.2500000   0.4166667), wk =   0.0555556
        k(   58) = (   0.1666667   0.2500000  -0.5000000), wk =   0.0277778
        k(   59) = (   0.1666667   0.3333333   0.3333333), wk =   0.0277778
        k(   60) = (   0.1666667   0.3333333   0.4166667), wk =   0.0555556
        k(   61) = (   0.1666667   0.3333333  -0.5000000), wk =   0.0277778
        k(   62) = (   0.1666667   0.4166667   0.4166667), wk =   0.0277778
        k(   63) = (   0.1666667   0.4166667  -0.5000000), wk =   0.0277778
        k(   64) = (   0.1666667  -0.5000000  -0.5000000), wk =   0.0069444
        k(   65) = (   0.2500000   0.2500000   0.2500000), wk =   0.0092593
        k(   66) = (   0.2500000   0.2500000   0.3333333), wk =   0.0277778
        k(   67) = (   0.2500000   0.2500000   0.4166667), wk =   0.0277778
        k(   68) = (   0.2500000   0.2500000  -0.5000000), wk =   0.0138889
        k(   69) = (   0.2500000   0.3333333   0.3333333), wk =   0.0277778
        k(   70) = (   0.2500000   0.3333333   0.4166667), wk =   0.0555556
        k(   71) = (   0.2500000   0.3333333  -0.5000000), wk =   0.0277778
        k(   72) = (   0.2500000   0.4166667   0.4166667), wk =   0.0277778
        k(   73) = (   0.2500000   0.4166667  -0.5000000), wk =   0.0277778
        k(   74) = (   0.2500000  -0.5000000  -0.5000000), wk =   0.0069444
        k(   75) = (   0.3333333   0.3333333   0.3333333), wk =   0.0092593
        k(   76) = (   0.3333333   0.3333333   0.4166667), wk =   0.0277778
        k(   77) = (   0.3333333   0.3333333  -0.5000000), wk =   0.0138889
        k(   78) = (   0.3333333   0.4166667   0.4166667), wk =   0.0277778
        k(   79) = (   0.3333333   0.4166667  -0.5000000), wk =   0.0277778
        k(   80) = (   0.3333333  -0.5000000  -0.5000000), wk =   0.0069444
        k(   81) = (   0.4166667   0.4166667   0.4166667), wk =   0.0092593
        k(   82) = (   0.4166667   0.4166667  -0.5000000), wk =   0.0138889
        k(   83) = (   0.4166667  -0.5000000  -0.5000000), wk =   0.0069444
        k(   84) = (  -0.5000000  -0.5000000  -0.5000000), wk =   0.0011574

                       cryst. coord.
        k(    1) = (   0.0000000   0.0000000   0.0000000), wk =   0.0011574
        k(    2) = (   0.0000000   0.0000000   0.0833333), wk =   0.0069444
        k(    3) = (   0.0000000   0.0000000   0.1666667), wk =   0.0069444
        k(    4) = (   0.0000000   0.0000000   0.2500000), wk =   0.0069444
        k(    5) = (   0.0000000   0.0000000   0.3333333), wk =   0.0069444
        k(    6) = (   0.0000000   0.0000000   0.4166667), wk =   0.0069444
        k(    7) = (   0.0000000   0.0000000  -0.5000000), wk =   0.0034722
        k(    8) = (   0.0000000   0.0833333   0.0833333), wk =   0.0138889
        k(    9) = (   0.0000000   0.0833333   0.1666667), wk =   0.0277778
        k(   10) = (   0.0000000   0.0833333   0.2500000), wk =   0.0277778
        k(   11) = (   0.0000000   0.0833333   0.3333333), wk =   0.0277778
        k(   12) = (   0.0000000   0.0833333   0.4166667), wk =   0.0277778
        k(   13) = (   0.0000000   0.0833333  -0.5000000), wk =   0.0138889
        k(   14) = (   0.0000000   0.1666667   0.1666667), wk =   0.0138889
        k(   15) = (   0.0000000   0.1666667   0.2500000), wk =   0.0277778
        k(   16) = (   0.0000000   0.1666667   0.3333333), wk =   0.0277778
        k(   17) = (   0.0000000   0.1666667   0.4166667), wk =   0.0277778
        k(   18) = (   0.0000000   0.1666667  -0.5000000), wk =   0.0138889
        k(   19) = (   0.0000000   0.2500000   0.2500000), wk =   0.0138889
        k(   20) = (   0.0000000   0.2500000   0.3333333), wk =   0.0277778
        k(   21) = (   0.0000000   0.2500000   0.4166667), wk =   0.0277778
        k(   22) = (   0.0000000   0.2500000  -0.5000000), wk =   0.0138889
        k(   23) = (   0.0000000   0.3333333   0.3333333), wk =   0.0138889
        k(   24) = (   0.0000000   0.3333333   0.4166667), wk =   0.0277778
        k(   25) = (   0.0000000   0.3333333  -0.5000000), wk =   0.0138889
        k(   26) = (   0.0000000   0.4166667   0.4166667), wk =   0.0138889
        k(   27) = (   0.0000000   0.4166667  -0.5000000), wk =   0.0138889
        k(   28) = (   0.0000000  -0.5000000  -0.5000000), wk =   0.0034722
        k(   29) = (   0.0833333   0.0833333   0.0833333), wk =   0.0092593
        k(   30) = (   0.0833333   0.0833333   0.1666667), wk =   0.0277778
        k(   31) = (   0.0833333   0.0833333   0.2500000), wk =   0.0277778
        k(   32) = (   0.0833333   0.0833333   0.3333333), wk =   0.0277778
        k(   33) = (   0.0833333   0.0833333   0.4166667), wk =   0.0277778
        k(   34) = (   0.0833333   0.0833333  -0.5000000), wk =   0.0138889
        k(   35) = (   0.0833333   0.1666667   0.1666667), wk =   0.0277778
        k(   36) = (   0.0833333   0.1666667   0.2500000), wk =   0.0555556
        k(   37) = (   0.0833333   0.1666667   0.3333333), wk =   0.0555556
        k(   38) = (   0.0833333   0.1666667   0.4166667), wk =   0.0555556
        k(   39) = (   0.0833333   0.1666667  -0.5000000), wk =   0.0277778
        k(   40) = (   0.0833333   0.2500000   0.2500000), wk =   0.0277778
        k(   41) = (   0.0833333   0.2500000   0.3333333), wk =   0.0555556
        k(   42) = (   0.0833333   0.2500000   0.4166667), wk =   0.0555556
        k(   43) = (   0.0833333   0.2500000  -0.5000000), wk =   0.0277778
        k(   44) = (   0.0833333   0.3333333   0.3333333), wk =   0.0277778
        k(   45) = (   0.0833333   0.3333333   0.4166667), wk =   0.0555556
        k(   46) = (   0.0833333   0.3333333  -0.5000000), wk =   0.0277778
        k(   47) = (   0.0833333   0.4166667   0.4166667), wk =   0.0277778
        k(   48) = (   0.0833333   0.4166667  -0.5000000), wk =   0.0277778
        k(   49) = (   0.0833333  -0.5000000  -0.5000000), wk =   0.0069444
        k(   50) = (   0.1666667   0.1666667   0.1666667), wk =   0.0092593
        k(   51) = (   0.1666667   0.1666667   0.2500000), wk =   0.0277778
        k(   52) = (   0.1666667   0.1666667   0.3333333), wk =   0.0277778
        k(   53) = (   0.1666667   0.1666667   0.4166667), wk =   0.0277778
        k(   54) = (   0.1666667   0.1666667  -0.5000000), wk =   0.0138889
        k(   55) = (   0.1666667   0.2500000   0.2500000), wk =   0.0277778
        k(   56) = (   0.1666667   0.2500000   0.3333333), wk =   0.0555556
        k(   57) = (   0.1666667   0.2500000   0.4166667), wk =   0.0555556
        k(   58) = (   0.1666667   0.2500000  -0.5000000), wk =   0.0277778
        k(   59) = (   0.1666667   0.3333333   0.3333333), wk =   0.0277778
        k(   60) = (   0.1666667   0.3333333   0.4166667), wk =   0.0555556
        k(   61) = (   0.1666667   0.3333333  -0.5000000), wk =   0.0277778
        k(   62) = (   0.1666667   0.4166667   0.4166667), wk =   0.0277778
        k(   63) = (   0.1666667   0.4166667  -0.5000000), wk =   0.0277778
        k(   64) = (   0.1666667  -0.5000000  -0.5000000), wk =   0.0069444
        k(   65) = (   0.2500000   0.2500000   0.2500000), wk =   0.0092593
        k(   66) = (   0.2500000   0.2500000   0.3333333), wk =   0.0277778
        k(   67) = (   0.2500000   0.2500000   0.4166667), wk =   0.0277778
        k(   68) = (   0.2500000   0.2500000  -0.5000000), wk =   0.0138889
        k(   69) = (   0.2500000   0.3333333   0.3333333), wk =   0.0277778
        k(   70) = (   0.2500000   0.3333333   0.4166667), wk =   0.0555556
        k(   71) = (   0.2500000   0.3333333  -0.5000000), wk =   0.0277778
        k(   72) = (   0.2500000   0.4166667   0.4166667), wk =   0.0277778
        k(   73) = (   0.2500000   0.4166667  -0.5000000), wk =   0.0277778
        k(   74) = (   0.2500000  -0.5000000  -0.5000000), wk =   0.0069444
        k(   75) = (   0.3333333   0.3333333   0.3333333), wk =   0.0092593
        k(   76) = (   0.3333333   0.3333333   0.4166667), wk =   0.0277778
        k(   77) = (   0.3333333   0.3333333  -0.5000000), wk =   0.0138889
        k(   78) = (   0.3333333   0.4166667   0.4166667), wk =   0.0277778
        k(   79) = (   0.3333333   0.4166667  -0.5000000), wk =   0.0277778
        k(   80) = (   0.3333333  -0.5000000  -0.5000000), wk =   0.0069444
        k(   81) = (   0.4166667   0.4166667   0.4166667), wk =   0.0092593
        k(   82) = (   0.4166667   0.4166667  -0.5000000), wk =   0.0138889
        k(   83) = (   0.4166667  -0.5000000  -0.5000000), wk =   0.0069444
        k(   84) = (  -0.5000000  -0.5000000  -0.5000000), wk =   0.0011574

     Dense  grid:    17845 G-vectors     FFT dimensions: (  36,  36,  36)

     Smooth grid:     6355 G-vectors     FFT dimensions: (  24,  24,  24)

     Dynamical RAM for                 wfc:       0.17 MB

     Dynamical RAM for     wfc (w. buffer):      14.27 MB

     Dynamical RAM for           str. fact:       0.54 MB

     Dynamical RAM for           local pot:       0.00 MB

     Dynamical RAM for          nlocal pot:       0.22 MB

     Dynamical RAM for                qrad:       6.42 MB

     Dynamical RAM for          rho,v,vnew:       1.88 MB

     Dynamical RAM for               rhoin:       0.63 MB

     Dynamical RAM for            rho*nmix:       4.36 MB

     Dynamical RAM for           G-vectors:       1.07 MB

     Dynamical RAM for          h,s,v(r/c):       0.04 MB

     Dynamical RAM for          <psi|beta>:       0.00 MB

     Dynamical RAM for                 psi:       0.34 MB

     Dynamical RAM for                hpsi:       0.34 MB

     Dynamical RAM for                spsi:       0.34 MB

     Dynamical RAM for      wfcinit/wfcrot:       0.34 MB

     Dynamical RAM for           addusdens:      50.92 MB

     Dynamical RAM for          addusforce:      51.06 MB

     Dynamical RAM for         addusstress:      54.73 MB

     Estimated static dynamical RAM per process >      27.63 MB

     Estimated max dynamical RAM per process >      86.72 MB

     Initial potential from superposition of free atoms

     starting charge      19.9999, renormalised to      20.0000
     Starting wfcs are   13 randomized atomic wfcs +    1 random wfcs
     Checking if some PAW data can be deallocated... 
       PAW data deallocated on    1 nodes for type:  1

     total cpu time spent up to now is        1.5 secs

     Self-consistent Calculation

     iteration #  1     ecut=    50.00 Ry     beta= 0.40
     Davidson diagonalization with overlap

---- Real-time Memory Report at c_bands before calling an iterative solver
            94 MiB given to the printing process from OS
             0 MiB allocation reported by mallinfo(arena+hblkhd)
          4703 MiB available memory on the node where the printing process lives
------------------
     ethr =  1.00E-02,  avg # of iterations =  3.5

     Threshold (ethr) on eigenvalues was too large:
     Diagonalizing with lowered threshold

     Davidson diagonalization with overlap

---- Real-time Memory Report at c_bands before calling an iterative solver
           124 MiB given to the printing process from OS
             0 MiB allocation reported by mallinfo(arena+hblkhd)
          4686 MiB available memory on the node where the printing process lives
------------------
     ethr =  9.81E-05,  avg # of iterations =  2.2

     total cpu time spent up to now is        5.9 secs

     total energy              =    -461.53112533 Ry
     estimated scf accuracy    <       0.01937426 Ry

     iteration #  2     ecut=    50.00 Ry     beta= 0.40
     Davidson diagonalization with overlap

---- Real-time Memory Report at c_bands before calling an iterative solver
           125 MiB given to the printing process from OS
             0 MiB allocation reported by mallinfo(arena+hblkhd)
          4682 MiB available memory on the node where the printing process lives
------------------
     ethr =  9.69E-05,  avg # of iterations =  2.0

     total cpu time spent up to now is       10.0 secs

     total energy              =    -461.53582593 Ry
     estimated scf accuracy    <       0.00375343 Ry

     iteration #  3     ecut=    50.00 Ry     beta= 0.40
     Davidson diagonalization with overlap

---- Real-time Memory Report at c_bands before calling an iterative solver
           125 MiB given to the printing process from OS
             0 MiB allocation reported by mallinfo(arena+hblkhd)
          4679 MiB available memory on the node where the printing process lives
------------------
     ethr =  1.88E-05,  avg # of iterations =  2.1

     total cpu time spent up to now is       12.2 secs

     total energy              =    -461.53616383 Ry
     estimated scf accuracy    <       0.00052317 Ry

     iteration #  4     ecut=    50.00 Ry     beta= 0.40
     Davidson diagonalization with overlap

---- Real-time Memory Report at c_bands before calling an iterative solver
           126 MiB given to the printing process from OS
             0 MiB allocation reported by mallinfo(arena+hblkhd)
          4678 MiB available memory on the node where the printing process lives
------------------
     ethr =  2.62E-06,  avg # of iterations =  1.8

     total cpu time spent up to now is       14.3 secs

     total energy              =    -461.53618469 Ry
     estimated scf accuracy    <       0.00002177 Ry

     iteration #  5     ecut=    50.00 Ry     beta= 0.40
     Davidson diagonalization with overlap

---- Real-time Memory Report at c_bands before calling an iterative solver
           126 MiB given to the printing process from OS
             0 MiB allocation reported by mallinfo(arena+hblkhd)
          4676 MiB available memory on the node where the printing process lives
------------------
     ethr =  1.09E-07,  avg # of iterations =  2.1

     total cpu time spent up to now is       16.7 secs

     total energy              =    -461.53619203 Ry
     estimated scf accuracy    <       0.00002639 Ry

     iteration #  6     ecut=    50.00 Ry     beta= 0.40
     Davidson diagonalization with overlap

---- Real-time Memory Report at c_bands before calling an iterative solver
           126 MiB given to the printing process from OS
             0 MiB allocation reported by mallinfo(arena+hblkhd)
          4677 MiB available memory on the node where the printing process lives
------------------
     ethr =  1.09E-07,  avg # of iterations =  2.0

     total cpu time spent up to now is       19.0 secs

     total energy              =    -461.53619681 Ry
     estimated scf accuracy    <       0.00000002 Ry

     iteration #  7     ecut=    50.00 Ry     beta= 0.40
     Davidson diagonalization with overlap

---- Real-time Memory Report at c_bands before calling an iterative solver
           126 MiB given to the printing process from OS
             0 MiB allocation reported by mallinfo(arena+hblkhd)
          4678 MiB available memory on the node where the printing process lives
------------------
     ethr =  9.70E-11,  avg # of iterations =  2.4

     total cpu time spent up to now is       21.3 secs

     End of self-consistent calculation

          k = 0.0000 0.0000 0.0000 (   751 PWs)   bands (ev):

  -116.6443 -70.7893 -70.7893 -70.7893   0.9875   1.8364   1.8364   2.8427
     2.8427   2.8427  21.1263  21.1263  21.1263  23.9635

     occupation numbers 
     1.0000   1.0000   1.0000   1.0000   1.0000   1.0000   1.0000   1.0000
     1.0000   1.0000   0.0000   0.0000   0.0000   0.0000

          k = 0.0000 0.0000 0.0833 (   771 PWs)   bands (ev):

  -116.6443 -70.7907 -70.7894 -70.7894   1.1316   1.8434   1.8760   2.8223
     2.8223   2.8443  19.1262  21.2937  21.2937  24.0720

     occupation numbers 
     1.0000   1.0000   1.0000   1.0000   1.0000   1.0000   1.0000   1.0000
     1.0000   1.0000   0.0000   0.0000   0.0000   0.0000

          k = 0.0000 0.0000 0.1667 (   779 PWs)   bands (ev):

  -116.6441 -70.7938 -70.7893 -70.7893   1.5052   1.8627   2.0466   2.7674
     2.7674   2.8489  16.2775  21.7860  21.7860  24.3996

     occupation numbers 
     1.0000   1.0000   1.0000   1.0000   1.0000   1.0000   1.0000   1.0000
     1.0000   1.0000   0.0000   0.0000   0.0000   0.0000

          k = 0.0000 0.0000 0.2500 (   799 PWs)   bands (ev):

  -116.6439 -70.7983 -70.7892 -70.7892   1.8050   1.8892   2.6314   2.6935
     2.6935   2.8552  13.5504  22.5724  22.5724  24.9540

     occupation numbers 
     1.0000   1.0000   1.0000   1.0000   1.0000   1.0000   1.0000   1.0000
     1.0000   1.0000   0.0000   0.0000   0.0000   0.0000

          k = 0.0000 0.0000 0.3333 (   792 PWs)   bands (ev):

  -116.6436 -70.8023 -70.7888 -70.7888   1.9158   1.9422   2.6211   2.6211
     2.8615   3.6896  11.0459  23.5890  23.5890  25.7460

     occupation numbers 
     1.0000   1.0000   1.0000   1.0000   1.0000   1.0000   1.0000   1.0000
     1.0000   1.0000   0.0000   0.0000   0.0000   0.0000

          k = 0.0000 0.0000 0.4167 (   800 PWs)   bands (ev):

  -116.6434 -70.8054 -70.7887 -70.7887   1.9353   2.0193   2.5689   2.5689
     2.8661   5.0830   8.7979  24.6696  24.6696  26.7887

     occupation numbers 
     1.0000   1.0000   1.0000   1.0000   1.0000   1.0000   1.0000   1.0000
     1.0000   1.0000   1.0001   0.0000   0.0000   0.0000

          k = 0.0000 0.0000-0.5000 (   804 PWs)   bands (ev):

  -116.6433 -70.8066 -70.7887 -70.7887   1.9424   2.0456   2.5499   2.5499
     2.8678   6.5733   7.0236  25.2538  25.2538  28.0906

     occupation numbers 
     1.0000   1.0000   1.0000   1.0000   1.0000   1.0000   1.0000   1.0000
     1.0000   1.0000   1.0000   0.0000   0.0000   0.0000

          k = 0.0000 0.0833 0.0833 (   772 PWs)   bands (ev):

  -116.6442 -70.7906 -70.7905 -70.7894   1.2758   1.8685   1.8959   2.8032
     2.8218   2.8265  19.0583  19.5237  21.4610  24.7037

     occupation numbers 
     1.0000   1.0000   1.0000   1.0000   1.0000   1.0000   1.0000   1.0000
     1.0000   1.0000   0.0000   0.0000   0.0000   0.0000

          k = 0.0000 0.0833 0.1667 (   780 PWs)   bands (ev):

  -116.6440 -70.7938 -70.7904 -70.7892   1.6349   1.8981   2.0613   2.7565
     2.7692   2.8293  16.4089  19.7800  21.9531  25.0991

     occupation numbers 
     1.0000   1.0000   1.0000   1.0000   1.0000   1.0000   1.0000   1.0000
     1.0000   1.0000   0.0000   0.0000   0.0000   0.0000

          k = 0.0000 0.0833 0.2500 (   788 PWs)   bands (ev):

  -116.6438 -70.7981 -70.7902 -70.7890   1.8646   1.9385   2.5451   2.6959
     2.8360   2.8380  13.6894  20.5090  22.7396  25.6511

     occupation numbers 
     1.0000   1.0000   1.0000   1.0000   1.0000   1.0000   1.0000   1.0000
     1.0000   1.0000   0.0000   0.0000   0.0000   0.0000

          k = 0.0000 0.0833 0.3333 (   786 PWs)   bands (ev):

  -116.6435 -70.8022 -70.7899 -70.7887   1.9317   2.0157   2.5605   2.6240
     2.8428   3.8258  11.1877  21.4916  23.7575  26.3972

     occupation numbers 
     1.0000   1.0000   1.0000   1.0000   1.0000   1.0000   1.0000   1.0000
     1.0000   1.0000   0.0000   0.0000   0.0000   0.0000

          k = 0.0000 0.0833 0.4167 (   792 PWs)   bands (ev):

  -116.6433 -70.8053 -70.7897 -70.7885   1.9569   2.0835   2.5123   2.5721
     2.8477   5.2152   8.9429  22.6407  24.8427  26.4018

     occupation numbers 
     1.0000   1.0000   1.0000   1.0000   1.0000   1.0000   1.0000   1.0000
     1.0000   1.0000   1.0021   0.0000   0.0000   0.0000

          k = 0.0000 0.0833-0.5000 (   796 PWs)   bands (ev):

  -116.6432 -70.8065 -70.7896 -70.7885   1.9652   2.1087   2.4930   2.5533
     2.8495   6.6682   7.2063  23.4268  25.4327  25.4860

     occupation numbers 
     1.0000   1.0000   1.0000   1.0000   1.0000   1.0000   1.0000   1.0000
     1.0000   1.0000   1.0000   0.0000   0.0000   0.0000

          k = 0.0000 0.1667 0.1667 (   782 PWs)   bands (ev):

  -116.6438 -70.7937 -70.7934 -70.7890   1.8369   2.0708   2.1805   2.7664
     2.7685   2.7823  16.4457  17.3346  22.4448  25.5075

     occupation numbers 
     1.0000   1.0000   1.0000   1.0000   1.0000   1.0000   1.0000   1.0000
     1.0000   1.0000   0.0000   0.0000   0.0000   0.0000

          k = 0.0000 0.1667 0.2500 (   789 PWs)   bands (ev):

  -116.6436 -70.7978 -70.7933 -70.7888   1.9129   2.1443   2.4447   2.7024
     2.7842   3.1832  14.0772  17.7044  23.2319  25.9961

     occupation numbers 
     1.0000   1.0000   1.0000   1.0000   1.0000   1.0000   1.0000   1.0000
     1.0000   1.0000   0.0000   0.0000   0.0000   0.0000

          k = 0.0000 0.1667 0.3333 (   782 PWs)   bands (ev):

  -116.6433 -70.8019 -70.7929 -70.7885   1.9610   2.2131   2.4298   2.6320
     2.7917   4.2227  11.6007  18.6642  24.2539  25.5714

     occupation numbers 
     1.0000   1.0000   1.0000   1.0000   1.0000   1.0000   1.0000   1.0000
     1.0000   1.0000   0.0000   0.0000   0.0000   0.0000

          k = 0.0000 0.1667 0.4167 (   790 PWs)   bands (ev):

  -116.6431 -70.8050 -70.7927 -70.7883   1.9907   2.2733   2.3805   2.5810
     2.7974   5.6055   9.3704  19.8283  23.7557  25.3525

     occupation numbers 
     1.0000   1.0000   1.0000   1.0000   1.0000   1.0000   1.0000   1.0000
     1.0000   1.0000   0.9380   0.0000   0.0000   0.0000

          k = 0.0000 0.1667-0.5000 (   794 PWs)   bands (ev):

  -116.6430 -70.8063 -70.7926 -70.7883   2.0009   2.3058   2.3507   2.5625
     2.7995   6.9705   7.7236  20.6571  22.6814  25.9591

     occupation numbers 
     1.0000   1.0000   1.0000   1.0000   1.0000   1.0000   1.0000   1.0000
     1.0000   1.0000   1.0000   0.0000   0.0000   0.0000

          k = 0.0000 0.2500 0.2500 (   784 PWs)   bands (ev):

  -116.6433 -70.7976 -70.7972 -70.7885   1.9578   2.3451   2.3464   2.7039
     2.7217   3.8593  14.2131  15.5702  24.0212  25.3023

     occupation numbers 
     1.0000   1.0000   1.0000   1.0000   1.0000   1.0000   1.0000   1.0000
     1.0000   1.0000   0.0000   0.0000   0.0000   0.0000

          k = 0.0000 0.2500 0.3333 (   784 PWs)   bands (ev):

  -116.6430 -70.8016 -70.7970 -70.7882   1.9993   2.2604   2.4774   2.6426
     2.7232   4.9027  12.2200  16.0495  23.1474  25.0506

     occupation numbers 
     1.0000   1.0000   1.0000   1.0000   1.0000   1.0000   1.0000   1.0000
     1.0000   1.0000   0.0000   0.0000   0.0000   0.0000

          k = 0.0000 0.2500 0.4167 (   793 PWs)   bands (ev):

  -116.6428 -70.8047 -70.7968 -70.7881   2.0283   2.2013   2.5535   2.5931
     2.7296   6.2608  10.0512  17.1574  21.2130  26.1695

     occupation numbers 
     1.0000   1.0000   1.0000   1.0000   1.0000   1.0000   1.0000   1.0000
     1.0000   1.0000   0.0000   0.0000   0.0000   0.0000

          k = 0.0000 0.2500-0.5000 (   782 PWs)   bands (ev):

  -116.6427 -70.8058 -70.7967 -70.7879   2.0387   2.1803   2.5751   2.5790
     2.7321   7.5285   8.5072  17.9475  20.1509  26.8021

     occupation numbers 
     1.0000   1.0000   1.0000   1.0000   1.0000   1.0000   1.0000   1.0000
     1.0000   1.0000   1.0000   0.0000   0.0000   0.0000

          k = 0.0000 0.3333 0.3333 (   786 PWs)   bands (ev):

  -116.6427 -70.8013 -70.8011 -70.7880   2.0367   2.1409   2.6480   2.6611
     2.6743   5.9035  12.4703  14.2833  20.8712  26.0925

     occupation numbers 
     1.0000   1.0000   1.0000   1.0000   1.0000   1.0000   1.0000   1.0000
     1.0000   1.0000   0.0000   0.0000   0.0000   0.0000

          k = 0.0000 0.3333 0.4167 (   786 PWs)   bands (ev):

  -116.6425 -70.8043 -70.8010 -70.7877   2.0565   2.0667   2.6053   2.6630
     2.7995   7.2101  10.8916  14.7854  18.9535  27.2361

     occupation numbers 
     1.0000   1.0000   1.0000   1.0000   1.0000   1.0000   1.0000   1.0000
     1.0000   1.0000   0.0000   0.0000   0.0000   0.0000

          k = 0.0000 0.3333-0.5000 (   792 PWs)   bands (ev):

  -116.6425 -70.8055 -70.8010 -70.7877   2.0302   2.0743   2.5877   2.6657
     2.8415   8.4015   9.4685  15.4469  17.9604  27.8985

     occupation numbers 
     1.0000   1.0000   1.0000   1.0000   1.0000   1.0000   1.0000   1.0000
     1.0000   1.0000   0.6125   0.0000   0.0000   0.0000

          k = 0.0000 0.4167 0.4167 (   788 PWs)   bands (ev):

  -116.6423 -70.8042 -70.8040 -70.7875   1.9633   2.0905   2.6123   2.6166
     2.9655   8.4547  11.3265  13.2114  17.1247  28.4060

     occupation numbers 
     1.0000   1.0000   1.0000   1.0000   1.0000   1.0000   1.0000   1.0000
     1.0000   1.0000   0.0000   0.0000   0.0000   0.0000

          k = 0.0000 0.4167-0.5000 (   786 PWs)   bands (ev):

  -116.6422 -70.8051 -70.8040 -70.7874   1.9302   2.0999   2.5969   2.6177
     3.0229   9.6227  10.4338  13.2205  16.2640  29.0857

     occupation numbers 
     1.0000   1.0000   1.0000   1.0000   1.0000   1.0000   1.0000   1.0000
     1.0000   0.1435   0.0000   0.0000   0.0000   0.0000

          k = 0.0000-0.5000-0.5000 (   784 PWs)   bands (ev):

  -116.6422 -70.8051 -70.8051 -70.7873   1.8953   2.1093   2.6003   2.6003
     3.0867  10.9204  10.9204  11.5842  15.5345  29.7551

     occupation numbers 
     1.0000   1.0000   1.0000   1.0000   1.0000   1.0000   1.0000   1.0000
     1.0000   0.0000   0.0000   0.0000   0.0000   0.0000

          k = 0.0833 0.0833 0.0833 (   772 PWs)   bands (ev):

  -116.6442 -70.7907 -70.7904 -70.7904   1.4215   1.9028   1.9028   2.8053
     2.8053   2.8055  19.2117  19.2117  19.9538  26.6148

     occupation numbers 
     1.0000   1.0000   1.0000   1.0000   1.0000   1.0000   1.0000   1.0000
     1.0000   1.0000   0.0000   0.0000   0.0000   0.0000

          k = 0.0833 0.0833 0.1667 (   783 PWs)   bands (ev):

  -116.6440 -70.7937 -70.7904 -70.7903   1.7681   1.9219   2.0784   2.7478
     2.7720   2.8119  16.5424  19.6642  20.2335  26.9792

     occupation numbers 
     1.0000   1.0000   1.0000   1.0000   1.0000   1.0000   1.0000   1.0000
     1.0000   1.0000   0.0000   0.0000   0.0000   0.0000

          k = 0.0833 0.0833 0.2500 (   789 PWs)   bands (ev):

  -116.6437 -70.7979 -70.7901 -70.7901   1.9483   1.9547   2.5176   2.6705
     2.8118   2.9652  13.8292  20.3942  20.9632  27.5570

     occupation numbers 
     1.0000   1.0000   1.0000   1.0000   1.0000   1.0000   1.0000   1.0000
     1.0000   1.0000   0.0000   0.0000   0.0000   0.0000

          k = 0.0833 0.0833 0.3333 (   789 PWs)   bands (ev):

  -116.6434 -70.8021 -70.7899 -70.7898   1.9753   2.0576   2.5383   2.5943
     2.8225   3.9612  11.3301  21.3603  21.9645  27.8802

     occupation numbers 
     1.0000   1.0000   1.0000   1.0000   1.0000   1.0000   1.0000   1.0000
     1.0000   1.0000   0.0000   0.0000   0.0000   0.0000

          k = 0.0833 0.0833 0.4167 (   793 PWs)   bands (ev):

  -116.6432 -70.8052 -70.7897 -70.7896   1.9955   2.1281   2.4953   2.5390
     2.8282   5.3474   9.0887  22.4540  23.1815  26.5448

     occupation numbers 
     1.0000   1.0000   1.0000   1.0000   1.0000   1.0000   1.0000   1.0000
     1.0000   1.0000   1.0264   0.0000   0.0000   0.0000

          k = 0.0833 0.0833-0.5000 (   794 PWs)   bands (ev):

  -116.6431 -70.8064 -70.7896 -70.7895   2.0030   2.1542   2.4767   2.5189
     2.8303   6.7664   7.3864  23.1333  24.1660  25.4307

     occupation numbers 
     1.0000   1.0000   1.0000   1.0000   1.0000   1.0000   1.0000   1.0000
     1.0000   1.0000   1.0000   0.0000   0.0000   0.0000

          k = 0.0833 0.1667 0.1667 (   788 PWs)   bands (ev):

  -116.6438 -70.7937 -70.7933 -70.7902   1.9287   2.0771   2.2236   2.7243
     2.7587   2.8433  16.5991  17.4329  20.4517  27.7182

     occupation numbers 
     1.0000   1.0000   1.0000   1.0000   1.0000   1.0000   1.0000   1.0000
     1.0000   1.0000   0.0000   0.0000   0.0000   0.0000

          k = 0.0833 0.1667 0.2500 (   793 PWs)   bands (ev):

  -116.6435 -70.7977 -70.7932 -70.7899   1.9809   2.1564   2.4421   2.6640
     2.7575   3.3204  14.2202  17.8231  21.1716  27.9390

     occupation numbers 
     1.0000   1.0000   1.0000   1.0000   1.0000   1.0000   1.0000   1.0000
     1.0000   1.0000   0.0000   0.0000   0.0000   0.0000

          k = 0.0833 0.1667 0.3333 (   784 PWs)   bands (ev):

  -116.6432 -70.8018 -70.7928 -70.7896   2.0211   2.2289   2.4279   2.5914
     2.7686   4.3607  11.7450  18.7815  22.1428  25.9260

     occupation numbers 
     1.0000   1.0000   1.0000   1.0000   1.0000   1.0000   1.0000   1.0000
     1.0000   1.0000   0.0000   0.0000   0.0000   0.0000

          k = 0.0833 0.1667 0.4167 (   789 PWs)   bands (ev):

  -116.6430 -70.8050 -70.7926 -70.7894   2.0477   2.2904   2.3820   2.5376
     2.7761   5.7393   9.5182  19.9334  23.1769  24.1475

     occupation numbers 
     1.0000   1.0000   1.0000   1.0000   1.0000   1.0000   1.0000   1.0000
     1.0000   1.0000   0.4292   0.0000   0.0000   0.0000

          k = 0.0833 0.1667-0.5000 (   786 PWs)   bands (ev):

  -116.6429 -70.8061 -70.7925 -70.7893   2.0572   2.3255   2.3512   2.5178
     2.7788   7.0775   7.8981  20.7347  22.8017  24.3050

     occupation numbers 
     1.0000   1.0000   1.0000   1.0000   1.0000   1.0000   1.0000   1.0000
     1.0000   1.0000   1.0000   0.0000   0.0000   0.0000

          k = 0.0833 0.2500 0.2500 (   788 PWs)   bands (ev):

  -116.6432 -70.7975 -70.7972 -70.7897   2.0218   2.3484   2.3500   2.6632
     2.6961   4.0032  14.3706  15.6848  21.8692  25.6944

     occupation numbers 
     1.0000   1.0000   1.0000   1.0000   1.0000   1.0000   1.0000   1.0000
     1.0000   1.0000   0.0000   0.0000   0.0000   0.0000

          k = 0.0833 0.2500 0.3333 (   782 PWs)   bands (ev):

  -116.6429 -70.8014 -70.7969 -70.7893   2.0614   2.2658   2.4785   2.6035
     2.6984   5.0452  12.3691  16.1745  22.5972  23.6758

     occupation numbers 
     1.0000   1.0000   1.0000   1.0000   1.0000   1.0000   1.0000   1.0000
     1.0000   1.0000   0.0000   0.0000   0.0000   0.0000

          k = 0.0833 0.2500 0.4167 (   787 PWs)   bands (ev):

  -116.6427 -70.8046 -70.7967 -70.7891   2.0899   2.2075   2.5479   2.5558
     2.7110   6.3988  10.2019  17.2803  21.3028  24.2059

     occupation numbers 
     1.0000   1.0000   1.0000   1.0000   1.0000   1.0000   1.0000   1.0000
     1.0000   1.0000   0.0000   0.0000   0.0000   0.0000

          k = 0.0833 0.2500-0.5000 (   788 PWs)   bands (ev):

  -116.6427 -70.8058 -70.7966 -70.7890   2.1003   2.1866   2.5313   2.5768
     2.7166   7.6470   8.6766  18.0625  20.2753  25.0563

     occupation numbers 
     1.0000   1.0000   1.0000   1.0000   1.0000   1.0000   1.0000   1.0000
     1.0000   1.0000   1.0000   0.0000   0.0000   0.0000

          k = 0.0833 0.3333 0.3333 (   780 PWs)   bands (ev):

  -116.6426 -70.8012 -70.8010 -70.7890   2.0990   2.1491   2.6086   2.6095
     2.6970   6.0478  12.6335  14.3983  20.9524  24.0231

     occupation numbers 
     1.0000   1.0000   1.0000   1.0000   1.0000   1.0000   1.0000   1.0000
     1.0000   1.0000   0.0000   0.0000   0.0000   0.0000

          k = 0.0833 0.3333 0.4167 (   785 PWs)   bands (ev):

  -116.6424 -70.8042 -70.8009 -70.7888   2.0679   2.1274   2.5642   2.6224
     2.8105   7.3523  11.0481  14.9096  19.0701  25.1839

     occupation numbers 
     1.0000   1.0000   1.0000   1.0000   1.0000   1.0000   1.0000   1.0000
     1.0000   1.0000   0.0000   0.0000   0.0000   0.0000

          k = 0.0833 0.3333-0.5000 (   790 PWs)   bands (ev):

  -116.6424 -70.8054 -70.8009 -70.7888   2.0399   2.1374   2.5457   2.6261
     2.8518   8.5308   9.6355  15.5723  18.0842  26.0977

     occupation numbers 
     1.0000   1.0000   1.0000   1.0000   1.0000   1.0000   1.0000   1.0000
     1.0000   1.0000   0.1213   0.0000   0.0000   0.0000

          k = 0.0833 0.4167 0.4167 (   789 PWs)   bands (ev):

  -116.6422 -70.8040 -70.8039 -70.7886   1.9743   2.1540   2.5726   2.5769
     2.9694   8.5993  11.4957  13.3276  17.2458  26.3954

     occupation numbers 
     1.0000   1.0000   1.0000   1.0000   1.0000   1.0000   1.0000   1.0000
     1.0000   1.0000   0.0000   0.0000   0.0000   0.0000

          k = 0.0833 0.4167-0.5000 (   792 PWs)   bands (ev):

  -116.6422 -70.8051 -70.8039 -70.7886   1.9416   2.1638   2.5564   2.5785
     3.0257   9.7614  10.6025  13.3472  16.3839  27.3556

     occupation numbers 
     1.0000   1.0000   1.0000   1.0000   1.0000   1.0000   1.0000   1.0000
     1.0000   0.0154   0.0000   0.0000   0.0000   0.0000

          k = 0.0833-0.5000-0.5000 (   792 PWs)   bands (ev):

  -116.6421 -70.8050 -70.8050 -70.7886   1.9072   2.1734   2.5603   2.5603
     3.0878  11.0925  11.0925  11.6806  15.6505  28.3817

     occupation numbers 
     1.0000   1.0000   1.0000   1.0000   1.0000   1.0000   1.0000   1.0000
     1.0000   0.0000   0.0000   0.0000   0.0000   0.0000

          k = 0.1667 0.1667 0.1667 (   802 PWs)   bands (ev):

  -116.6436 -70.7936 -70.7933 -70.7933   2.0945   2.0945   2.3507   2.6949
     2.6949   3.0801  17.0516  17.0516  18.4038  30.5328

     occupation numbers 
     1.0000   1.0000   1.0000   1.0000   1.0000   1.0000   1.0000   1.0000
     1.0000   1.0000   0.0000   0.0000   0.0000   0.0000

          k = 0.1667 0.1667 0.2500 (   784 PWs)   bands (ev):

  -116.6433 -70.7974 -70.7930 -70.7929   2.1194   2.2116   2.4180   2.6087
     2.6937   3.7216  14.6252  17.7802  18.8192  28.6897

     occupation numbers 
     1.0000   1.0000   1.0000   1.0000   1.0000   1.0000   1.0000   1.0000
     1.0000   1.0000   0.0000   0.0000   0.0000   0.0000

          k = 0.1667 0.1667 0.3333 (   781 PWs)   bands (ev):

  -116.6430 -70.8015 -70.7926 -70.7926   2.1463   2.2946   2.4026   2.5224
     2.7086   4.7716  12.1656  18.7395  19.7742  26.3032

     occupation numbers 
     1.0000   1.0000   1.0000   1.0000   1.0000   1.0000   1.0000   1.0000
     1.0000   1.0000   0.0000   0.0000   0.0000   0.0000

          k = 0.1667 0.1667 0.4167 (   790 PWs)   bands (ev):

  -116.6428 -70.8047 -70.7924 -70.7924   2.1687   2.3269   2.3974   2.4578
     2.7213   6.1384   9.9527  19.8060  21.0246  24.4764

     occupation numbers 
     1.0000   1.0000   1.0000   1.0000   1.0000   1.0000   1.0000   1.0000
     1.0000   1.0000   0.0002   0.0000   0.0000   0.0000

          k = 0.1667 0.1667-0.5000 (   782 PWs)   bands (ev):

  -116.6427 -70.8058 -70.7923 -70.7923   2.1780   2.3241   2.4081   2.4334
     2.7261   7.4118   8.3975  20.4360  22.3167  22.8617

     occupation numbers 
     1.0000   1.0000   1.0000   1.0000   1.0000   1.0000   1.0000   1.0000
     1.0000   1.0000   1.0000   0.0000   0.0000   0.0000

          k = 0.1667 0.2500 0.2500 (   780 PWs)   bands (ev):

  -116.6430 -70.7971 -70.7969 -70.7926   2.1840   2.3530   2.3569   2.5816
     2.6281   4.4288  14.8330  15.9691  19.1289  26.1514

     occupation numbers 
     1.0000   1.0000   1.0000   1.0000   1.0000   1.0000   1.0000   1.0000
     1.0000   1.0000   0.0000   0.0000   0.0000   0.0000

          k = 0.1667 0.2500 0.3333 (   784 PWs)   bands (ev):

  -116.6427 -70.8012 -70.7967 -70.7924   2.2211   2.2768   2.4746   2.5142
     2.6424   5.4694  12.8042  16.5129  20.0368  23.9058

     occupation numbers 
     1.0000   1.0000   1.0000   1.0000   1.0000   1.0000   1.0000   1.0000
     1.0000   1.0000   0.0000   0.0000   0.0000   0.0000

          k = 0.1667 0.2500 0.4167 (   787 PWs)   bands (ev):

  -116.6425 -70.8044 -70.7965 -70.7921   2.2208   2.2493   2.4466   2.5370
     2.6826   6.8102  10.6439  17.6014  20.9392  22.2608

     occupation numbers 
     1.0000   1.0000   1.0000   1.0000   1.0000   1.0000   1.0000   1.0000
     1.0000   1.0000   0.0000   0.0000   0.0000   0.0000

          k = 0.1667 0.2500-0.5000 (   784 PWs)   bands (ev):

  -116.6424 -70.8055 -70.7964 -70.7920   2.2005   2.2613   2.4217   2.5520
     2.7017   8.0108   9.1647  18.3312  20.6313  22.4763

     occupation numbers 
     1.0000   1.0000   1.0000   1.0000   1.0000   1.0000   1.0000   1.0000
     1.0000   1.0000   1.0589   0.0000   0.0000   0.0000

          k = 0.1667 0.3333 0.3333 (   786 PWs)   bands (ev):

  -116.6424 -70.8010 -70.8008 -70.7921   2.1695   2.2639   2.5136   2.5161
     2.7133   6.4764  13.1099  14.7281  20.5684  22.0366

     occupation numbers 
     1.0000   1.0000   1.0000   1.0000   1.0000   1.0000   1.0000   1.0000
     1.0000   1.0000   0.0000   0.0000   0.0000   0.0000

          k = 0.1667 0.3333 0.4167 (   782 PWs)   bands (ev):

  -116.6422 -70.8039 -70.8007 -70.7918   2.0931   2.2946   2.4605   2.5270
     2.8296   7.7747  11.5047  15.2676  19.3754  22.5153

     occupation numbers 
     1.0000   1.0000   1.0000   1.0000   1.0000   1.0000   1.0000   1.0000
     1.0000   1.0000   0.0000   0.0000   0.0000   0.0000

          k = 0.1667 0.3333-0.5000 (   790 PWs)   bands (ev):

  -116.6422 -70.8051 -70.8006 -70.7918   2.0659   2.3077   2.4366   2.5313
     2.8719   8.9206  10.1187  15.9255  18.4518  23.4215

     occupation numbers 
     1.0000   1.0000   1.0000   1.0000   1.0000   1.0000   1.0000   1.0000
     1.0000   1.0013   0.0000   0.0000   0.0000   0.0000

          k = 0.1667 0.4167 0.4167 (   789 PWs)   bands (ev):

  -116.6420 -70.8038 -70.8037 -70.7916   2.0041   2.3252   2.4722   2.4741
     2.9781   9.0260  11.9865  13.6717  17.6019  23.6727

     occupation numbers 
     1.0000   1.0000   1.0000   1.0000   1.0000   1.0000   1.0000   1.0000
     1.0000   1.0103   0.0000   0.0000   0.0000   0.0000

          k = 0.1667 0.4167-0.5000 (   780 PWs)   bands (ev):

  -116.6420 -70.8048 -70.8036 -70.7915   1.9727   2.3382   2.4500   2.4779
     3.0322  10.1708  11.0910  13.7213  16.7447  24.6803

     occupation numbers 
     1.0000   1.0000   1.0000   1.0000   1.0000   1.0000   1.0000   1.0000
     1.0000   0.0000   0.0000   0.0000   0.0000   0.0000

          k = 0.1667-0.5000-0.5000 (   788 PWs)   bands (ev):

  -116.6419 -70.8048 -70.8048 -70.7914   1.9397   2.3508   2.4551   2.4551
     3.0908  11.5900  11.5900  11.9778  16.0013  25.8250

     occupation numbers 
     1.0000   1.0000   1.0000   1.0000   1.0000   1.0000   1.0000   1.0000
     1.0000   0.0000   0.0000   0.0000   0.0000   0.0000

          k = 0.2500 0.2500 0.2500 (   784 PWs)   bands (ev):

  -116.6427 -70.7969 -70.7967 -70.7967   2.3263   2.3648   2.3648   2.5418
     2.5418   5.1483  15.5709  15.5709  17.4977  26.7133

     occupation numbers 
     1.0000   1.0000   1.0000   1.0000   1.0000   1.0000   1.0000   1.0000
     1.0000   1.0000   0.0000   0.0000   0.0000   0.0000

          k = 0.2500 0.2500 0.3333 (   785 PWs)   bands (ev):

  -116.6424 -70.8009 -70.7965 -70.7964   2.2639   2.3587   2.4534   2.4725
     2.6192   6.1795  13.4724  16.5267  18.0798  24.4875

     occupation numbers 
     1.0000   1.0000   1.0000   1.0000   1.0000   1.0000   1.0000   1.0000
     1.0000   1.0000   0.0000   0.0000   0.0000   0.0000

          k = 0.2500 0.2500 0.4167 (   781 PWs)   bands (ev):

  -116.6422 -70.8039 -70.7962 -70.7961   2.2099   2.3308   2.4471   2.4769
     2.7180   7.4979  11.3451  17.5522  19.2616  22.5915

     occupation numbers 
     1.0000   1.0000   1.0000   1.0000   1.0000   1.0000   1.0000   1.0000
     1.0000   1.0000   0.0000   0.0000   0.0000   0.0000

          k = 0.2500 0.2500-0.5000 (   780 PWs)   bands (ev):

  -116.6422 -70.8051 -70.7962 -70.7960   2.1897   2.3151   2.4437   2.4837
     2.7549   8.6440   9.9216  18.1168  20.7354  20.8179

     occupation numbers 
     1.0000   1.0000   1.0000   1.0000   1.0000   1.0000   1.0000   1.0000
     1.0000   1.0000   0.0004   0.0000   0.0000   0.0000

          k = 0.2500 0.3333 0.3333 (   778 PWs)   bands (ev):

  -116.6422 -70.8006 -70.8004 -70.7961   2.1923   2.3584   2.4028   2.5293
     2.7265   7.1873  13.8609  15.1585  18.4608  22.3640

     occupation numbers 
     1.0000   1.0000   1.0000   1.0000   1.0000   1.0000   1.0000   1.0000
     1.0000   1.0000   0.0000   0.0000   0.0000   0.0000

          k = 0.2500 0.3333 0.4167 (   784 PWs)   bands (ev):

  -116.6420 -70.8036 -70.8004 -70.7959   2.1244   2.3199   2.3977   2.5451
     2.8511   8.4726  12.2237  15.7679  19.2229  20.8401

     occupation numbers 
     1.0000   1.0000   1.0000   1.0000   1.0000   1.0000   1.0000   1.0000
     1.0000   1.0000   0.0000   0.0000   0.0000   0.0000

          k = 0.2500 0.3333-0.5000 (   784 PWs)   bands (ev):

  -116.6419 -70.8047 -70.8003 -70.7958   2.0991   2.3004   2.4015   2.5495
     2.8977   9.5792  10.8716  16.3790  19.0333  21.0078

     occupation numbers 
     1.0000   1.0000   1.0000   1.0000   1.0000   1.0000   1.0000   1.0000
     1.0000   0.2402   0.0000   0.0000   0.0000   0.0000

          k = 0.2500 0.4167 0.4167 (   787 PWs)   bands (ev):

  -116.6418 -70.8034 -70.8034 -70.7957   2.0445   2.3278   2.3434   2.5786
     2.9872   9.7225  12.7512  14.2138  18.1384  21.2265

     occupation numbers 
     1.0000   1.0000   1.0000   1.0000   1.0000   1.0000   1.0000   1.0000
     1.0000   0.0316   0.0000   0.0000   0.0000   0.0000

          k = 0.2500 0.4167-0.5000 (   780 PWs)   bands (ev):

  -116.6417 -70.8044 -70.8033 -70.7956   2.0151   2.3138   2.3417   2.5873
     3.0398  10.8400  11.8511  14.3096  17.3458  22.1268

     occupation numbers 
     1.0000   1.0000   1.0000   1.0000   1.0000   1.0000   1.0000   1.0000
     1.0000   0.0000   0.0000   0.0000   0.0000   0.0000

          k = 0.2500-0.5000-0.5000 (   788 PWs)   bands (ev):

  -116.6416 -70.8044 -70.8044 -70.7956   1.9842   2.3199   2.3199   2.5972
     3.0949  12.3613  12.3613  12.4957  16.5952  23.2004

     occupation numbers 
     1.0000   1.0000   1.0000   1.0000   1.0000   1.0000   1.0000   1.0000
     1.0000   0.0000   0.0000   0.0000   0.0000   0.0000

          k = 0.3333 0.3333 0.3333 (   789 PWs)   bands (ev):

  -116.6419 -70.8004 -70.8002 -70.8002   2.1840   2.2963   2.2963   2.7375
     2.7375   8.1846  14.8147  14.8147  17.3288  23.1871

     occupation numbers 
     1.0000   1.0000   1.0000   1.0000   1.0000   1.0000   1.0000   1.0000
     1.0000   1.0000   0.0000   0.0000   0.0000   0.0000

          k = 0.3333 0.3333 0.4167 (   787 PWs)   bands (ev):

  -116.6417 -70.8033 -70.8001 -70.8000   2.1346   2.2217   2.2918   2.7450
     2.8929   9.4471  13.1238  15.8012  18.0885  21.4610

     occupation numbers 
     1.0000   1.0000   1.0000   1.0000   1.0000   1.0000   1.0000   1.0000
     1.0000   0.6926   0.0000   0.0000   0.0000   0.0000

          k = 0.3333 0.3333-0.5000 (   776 PWs)   bands (ev):

  -116.6416 -70.8043 -70.7999 -70.7998   2.1116   2.1951   2.2959   2.7478
     2.9489  10.5229  11.8208  16.3127  19.4010  19.6036

     occupation numbers 
     1.0000   1.0000   1.0000   1.0000   1.0000   1.0000   1.0000   1.0000
     1.0000   0.0000   0.0000   0.0000   0.0000   0.0000

          k = 0.3333 0.4167 0.4167 (   779 PWs)   bands (ev):

  -116.6415 -70.8030 -70.8029 -70.7998   2.0838   2.2071   2.2213   2.8209
     2.9949  10.6804  13.7063  14.7922  18.2916  19.8884

     occupation numbers 
     1.0000   1.0000   1.0000   1.0000   1.0000   1.0000   1.0000   1.0000
     1.0000   0.0000   0.0000   0.0000   0.0000   0.0000

          k = 0.3333 0.4167-0.5000 (   784 PWs)   bands (ev):

  -116.6414 -70.8041 -70.8029 -70.7997   2.0571   2.1868   2.2202   2.8323
     3.0480  11.7632  12.8033  14.9710  18.1645  19.9808

     occupation numbers 
     1.0000   1.0000   1.0000   1.0000   1.0000   1.0000   1.0000   1.0000
     1.0000   0.0000   0.0000   0.0000   0.0000   0.0000

          k = 0.3333-0.5000-0.5000 (   780 PWs)   bands (ev):

  -116.6413 -70.8040 -70.8040 -70.7996   2.0288   2.1931   2.1931   2.8482
     3.0991  13.2473  13.3179  13.3179  17.4438  20.8075

     occupation numbers 
     1.0000   1.0000   1.0000   1.0000   1.0000   1.0000   1.0000   1.0000
     1.0000   0.0000   0.0000   0.0000   0.0000   0.0000

          k = 0.4167 0.4167 0.4167 (   780 PWs)   bands (ev):

  -116.6413 -70.8028 -70.8027 -70.8027   2.0986   2.1364   2.1364   3.0001
     3.0001  11.8744  14.6669  14.6669  17.9000  20.3736

     occupation numbers 
     1.0000   1.0000   1.0000   1.0000   1.0000   1.0000   1.0000   1.0000
     1.0000   0.0000   0.0000   0.0000   0.0000   0.0000

          k = 0.4167 0.4167-0.5000 (   782 PWs)   bands (ev):

  -116.6412 -70.8039 -70.8027 -70.8026   2.0803   2.1062   2.1352   3.0019
     3.0658  12.9237  13.7740  15.1460  18.8063  18.8651

     occupation numbers 
     1.0000   1.0000   1.0000   1.0000   1.0000   1.0000   1.0000   1.0000
     1.0000   0.0000   0.0000   0.0000   0.0000   0.0000

          k = 0.4167-0.5000-0.5000 (   780 PWs)   bands (ev):

  -116.6411 -70.8037 -70.8037 -70.8025   2.0615   2.1049   2.1049   3.0345
     3.1021  14.1642  14.2700  14.2700  18.5576  18.8543

     occupation numbers 
     1.0000   1.0000   1.0000   1.0000   1.0000   1.0000   1.0000   1.0000
     1.0000   0.0000   0.0000   0.0000   0.0000   0.0000

          k =-0.5000-0.5000-0.5000 (   840 PWs)   bands (ev):

  -116.6411 -70.8041 -70.8041 -70.8041   2.0733   2.0733   2.0733   3.1029
     3.1029  14.7384  14.7384  14.7384  17.9260  19.7813

     occupation numbers 
     1.0000   1.0000   1.0000   1.0000   1.0000   1.0000   1.0000   1.0000
     1.0000   0.0000   0.0000   0.0000   0.0000   0.0000

     the Fermi energy is     9.5264 ev

!    total energy              =    -461.53619683 Ry
     estimated scf accuracy    <          9.3E-10 Ry
     smearing contrib. (-TS)   =      -0.00025836 Ry
     internal energy E=F+TS    =    -461.53593846 Ry

     The total energy is F=E-TS. E is the sum of the following terms:
     one-electron contribution =    -401.99785376 Ry
     hartree contribution      =     205.68518040 Ry
     xc contribution           =     -42.11576356 Ry
     ewald contribution        =    -223.10750154 Ry
     one-center paw contrib.   =       0.00000000 Ry
      -> PAW hartree energy AE =       0.00000000 Ry
      -> PAW hartree energy PS =       0.00000000 Ry
      -> PAW xc energy AE      =       0.00000000 Ry
      -> PAW xc energy PS      =       0.00000000 Ry
      -> total E_H with PAW    =     205.68518040 Ry
      -> total E_XC with PAW   =     -42.11576356 Ry

     convergence has been achieved in   7 iterations

     Forces acting on atoms (cartesian axes, Ry/au):

     atom    1 type  2   force =     0.00000000    0.00000000    0.00000000
     The non-local contrib.  to forces
     atom    1 type  2   force =     0.00000000    0.00000000    0.00000000
     The ionic contribution  to forces
     atom    1 type  2   force =    -0.00000000   -0.00000000   -0.00000000
     The local contribution  to forces
     atom    1 type  2   force =    -0.00000000    0.00000000    0.00000000
     The core correction contribution to forces
     atom    1 type  2   force =     0.00000000    0.00000000    0.00000000
     The Hubbard contrib.    to forces
     atom    1 type  2   force =     0.00000000    0.00000000    0.00000000
     The SCF correction term to forces
     atom    1 type  2   force =     0.00000000    0.00000000   -0.00000000

     Total force =     0.000000     Total SCF correction =     0.000000


     Computing stress (Cartesian axis) and pressure

          total   stress  (Ry/bohr**3)                   (kbar)     P=      -36.30
  -0.00024673   0.00000000   0.00000000          -36.30        0.00        0.00
   0.00000000  -0.00024673   0.00000000            0.00      -36.30        0.00
   0.00000000   0.00000000  -0.00024673            0.00        0.00      -36.30

     kinetic stress (kbar)  29968.36      0.00      0.00
                                0.00  29968.36      0.00
                                0.00      0.00  29968.36

     local   stress (kbar)  -5176.12      0.00      0.00
                                0.00  -5176.12      0.00
                                0.00      0.00  -5176.12

     nonloc. stress (kbar)  -3257.90      0.00      0.00
                                0.00  -3257.90      0.00
                                0.00      0.00  -3257.90

     hartree stress (kbar)  76622.68     -0.00     -0.00
                               -0.00  76622.68     -0.00
                               -0.00     -0.00  76622.68

     exc-cor stress (kbar) -15080.40     -0.00      0.00
                               -0.00 -15080.40     -0.00
                                0.00     -0.00 -15080.40

     corecor stress (kbar)      0.00      0.00      0.00
                                0.00      0.00      0.00
                                0.00      0.00      0.00

     ewald   stress (kbar) -83112.91     -0.00      0.00
                               -0.00 -83112.91      0.00
                                0.00      0.00 -83112.91

     hubbard stress (kbar)      0.00      0.00      0.00
                                0.00      0.00      0.00
                                0.00      0.00      0.00

     DFT-D   stress (kbar)      0.00      0.00      0.00
                                0.00      0.00      0.00
                                0.00      0.00      0.00

     XDM     stress (kbar)      0.00      0.00      0.00
                                0.00      0.00      0.00
                                0.00      0.00      0.00

     dft-nl  stress (kbar)      0.00      0.00      0.00
                                0.00      0.00      0.00
                                0.00      0.00      0.00

     TS-vdW  stress (kbar)      0.00      0.00      0.00
                                0.00      0.00      0.00
                                0.00      0.00      0.00

     MDB     stress (kbar)      0.00      0.00      0.00
                                0.00      0.00      0.00
                                0.00      0.00      0.00

     3D-RISM stress (kbar)      0.00      0.00      0.00
                                0.00      0.00      0.00
                                0.00      0.00      0.00


     BFGS Geometry Optimization
     Energy error            =      0.0E+00 Ry
     Gradient error          =      0.0E+00 Ry/Bohr
     Cell gradient error     =      3.6E+01 kbar

     number of scf cycles    =   1
     number of bfgs steps    =   0

     enthalpy           new  =    -461.5361968274 Ry

     new trust radius        =       0.0141535650 bohr
     new conv_thr            =       0.0000000100 Ry

     new unit-cell volume =    129.20839 a.u.^3 (    19.14671 Ang^3 )
     density =      5.67022 g/cm^3

CELL_PARAMETERS (angstrom)
   2.675252042   0.000000000   0.000000000
   0.000000000   2.675252042   0.000000000
   0.000000000   0.000000000   2.675252042

ATOMIC_POSITIONS (crystal)
Zn               0.0000000000        0.0000000000        0.0000000000



     Writing config-only to output data dir ./temp_cubic/aiida.save/ :
     XML data file
     NEW-OLD atomic charge density approx. for the potential

     total cpu time spent up to now is       22.2 secs

     Self-consistent Calculation

     iteration #  1     ecut=    50.00 Ry     beta= 0.40
     Davidson diagonalization with overlap

---- Real-time Memory Report at c_bands before calling an iterative solver
           128 MiB given to the printing process from OS
             0 MiB allocation reported by mallinfo(arena+hblkhd)
          4676 MiB available memory on the node where the printing process lives
------------------
     ethr =  1.00E-06,  avg # of iterations =  3.2

     Threshold (ethr) on eigenvalues was too large:
     Diagonalizing with lowered threshold

     Davidson diagonalization with overlap

---- Real-time Memory Report at c_bands before calling an iterative solver
           128 MiB given to the printing process from OS
             0 MiB allocation reported by mallinfo(arena+hblkhd)
          4674 MiB available memory on the node where the printing process lives
[...]

     occupation numbers 
     1.0000   1.0000   1.0000   1.0000   1.0000   1.0000   1.0000   1.0000
     1.0000   1.0000   0.0000   0.0000   0.0000   0.0000

          k = 0.1712 0.1712 0.4280 (   734 PWs)   bands (ev):

  -115.6348 -69.7985 -69.7812 -69.7810   3.1252   3.2827   3.3724   3.4586
     3.7677   7.1301  11.0858  21.5385  22.8285  26.2205

     occupation numbers 
     1.0000   1.0000   1.0000   1.0000   1.0000   1.0000   1.0000   1.0000
     1.0000   1.0000   0.0001   0.0000   0.0000   0.0000

          k = 0.1712 0.1712-0.5136 (   736 PWs)   bands (ev):

  -115.6347 -69.8001 -69.7810 -69.7810   3.1364   3.2886   3.3772   3.4298
     3.7732   8.5902   9.3294  22.2548  24.3551  24.5487

     occupation numbers 
     1.0000   1.0000   1.0000   1.0000   1.0000   1.0000   1.0000   1.0000
     1.0000   1.0000   1.0000   0.0000   0.0000   0.0000

          k = 0.1712 0.2568 0.2568 (   725 PWs)   bands (ev):

  -115.6351 -69.7878 -69.7876 -69.7813   3.1348   3.3000   3.3361   3.6017
     3.6587   5.3126  16.2214  17.4844  20.8140  28.0982

     occupation numbers 
     1.0000   1.0000   1.0000   1.0000   1.0000   1.0000   1.0000   1.0000
     1.0000   1.0000   0.0000   0.0000   0.0000   0.0000

          k = 0.1712 0.2568 0.3424 (   731 PWs)   bands (ev):

  -115.6347 -69.7936 -69.7873 -69.7810   3.1788   3.2252   3.4695   3.5225
     3.6752   6.4060  14.0984  18.0548  21.7648  25.7397

     occupation numbers 
     1.0000   1.0000   1.0000   1.0000   1.0000   1.0000   1.0000   1.0000
     1.0000   1.0000   0.0000   0.0000   0.0000   0.0000

          k = 0.1712 0.2568 0.4280 (   728 PWs)   bands (ev):

  -115.6344 -69.7979 -69.7869 -69.7806   3.1658   3.2143   3.4440   3.5388
     3.7200   7.8373  11.8096  19.2287  22.6479  24.0767

     occupation numbers 
     1.0000   1.0000   1.0000   1.0000   1.0000   1.0000   1.0000   1.0000
     1.0000   1.0000   0.0000   0.0000   0.0000   0.0000

          k = 0.1712 0.2568-0.5136 (   728 PWs)   bands (ev):

  -115.6343 -69.7995 -69.7868 -69.7805   3.1442   3.2293   3.4146   3.5560
     3.7405   9.2018  10.1536  20.0578  22.1782  24.5106

     occupation numbers 
     1.0000   1.0000   1.0000   1.0000   1.0000   1.0000   1.0000   1.0000
     1.0000   1.0000   1.0116   0.0000   0.0000   0.0000

          k = 0.1712 0.3424 0.3424 (   726 PWs)   bands (ev):

  -115.6343 -69.7932 -69.7930 -69.7805   3.1045   3.2289   3.5220   3.5235
     3.7528   7.4674  14.3853  16.2202  22.2540  23.8422

     occupation numbers 
     1.0000   1.0000   1.0000   1.0000   1.0000   1.0000   1.0000   1.0000
     1.0000   1.0000   0.0000   0.0000   0.0000   0.0000

          k = 0.1712 0.3424 0.4280 (   724 PWs)   bands (ev):

  -115.6340 -69.7973 -69.7928 -69.7802   3.0183   3.2654   3.4600   3.5371
     3.8863   8.8506  12.7057  16.7928  20.9123  24.4297

     occupation numbers 
     1.0000   1.0000   1.0000   1.0000   1.0000   1.0000   1.0000   1.0000
     1.0000   1.0000   0.0000   0.0000   0.0000   0.0000

          k = 0.1712 0.3424-0.5136 (   730 PWs)   bands (ev):

  -115.6339 -69.7990 -69.7927 -69.7802   2.9876   3.2814   3.4319   3.5423
     3.9347  10.1382  11.1728  17.5359  19.8833  25.5080

     occupation numbers 
     1.0000   1.0000   1.0000   1.0000   1.0000   1.0000   1.0000   1.0000
     1.0000   1.0090   0.0000   0.0000   0.0000   0.0000

          k = 0.1712 0.4280 0.4280 (   721 PWs)   bands (ev):

  -115.6337 -69.7970 -69.7970 -69.7799   2.9158   3.3013   3.4741   3.4760
     4.0608  10.1708  13.1773  15.1701  19.0202  25.6686

     occupation numbers 
     1.0000   1.0000   1.0000   1.0000   1.0000   1.0000   1.0000   1.0000
     1.0000   1.0153   0.0000   0.0000   0.0000   0.0000

          k = 0.1712 0.4280-0.5136 (   720 PWs)   bands (ev):

  -115.6336 -69.7986 -69.7969 -69.7798   2.8796   3.3169   3.4479   3.4808
     4.1244  11.4280  12.2114  15.2305  18.0806  26.8603

     occupation numbers 
     1.0000   1.0000   1.0000   1.0000   1.0000   1.0000   1.0000   1.0000
     1.0000   0.0000   0.0000   0.0000   0.0000   0.0000

          k = 0.1712-0.5136-0.5136 (   716 PWs)   bands (ev):

  -115.6334 -69.7984 -69.7984 -69.7796   2.8416   3.3321   3.4541   3.4541
     4.1940  12.7476  12.7476  13.5652  17.2903  28.3146

     occupation numbers 
     1.0000   1.0000   1.0000   1.0000   1.0000   1.0000   1.0000   1.0000
     1.0000   0.0000   0.0000   0.0000   0.0000   0.0000

          k = 0.2568 0.2568 0.2568 (   729 PWs)   bands (ev):

  -115.6347 -69.7875 -69.7872 -69.7872   3.2735   3.3455   3.3455   3.5577
     3.5577   6.0653  17.0122  17.0122  19.1394  28.6200

     occupation numbers 
     1.0000   1.0000   1.0000   1.0000   1.0000   1.0000   1.0000   1.0000
     1.0000   1.0000   0.0000   0.0000   0.0000   0.0000

          k = 0.2568 0.2568 0.3424 (   727 PWs)   bands (ev):

  -115.6343 -69.7931 -69.7870 -69.7867   3.2101   3.3389   3.4459   3.4767
     3.6458   7.1551  14.8044  18.0395  19.7345  26.2695

     occupation numbers 
     1.0000   1.0000   1.0000   1.0000   1.0000   1.0000   1.0000   1.0000
     1.0000   1.0000   0.0000   0.0000   0.0000   0.0000

          k = 0.2568 0.2568 0.4280 (   727 PWs)   bands (ev):

  -115.6340 -69.7974 -69.7866 -69.7864   3.1528   3.3076   3.4460   3.4732
     3.7567   8.5641  12.5495  19.1553  20.9613  24.3678

     occupation numbers 
     1.0000   1.0000   1.0000   1.0000   1.0000   1.0000   1.0000   1.0000
     1.0000   1.0000   0.0000   0.0000   0.0000   0.0000

          k = 0.2568 0.2568-0.5136 (   734 PWs)   bands (ev):

  -115.6339 -69.7990 -69.7866 -69.7863   3.1310   3.2898   3.4416   3.4811
     3.7980   9.8581  10.9654  19.7874  22.3835  22.7251

     occupation numbers 
     1.0000   1.0000   1.0000   1.0000   1.0000   1.0000   1.0000   1.0000
     1.0000   1.0000   0.0026   0.0000   0.0000   0.0000

          k = 0.2568 0.3424 0.3424 (   723 PWs)   bands (ev):

  -115.6339 -69.7927 -69.7925 -69.7864   3.1322   3.3362   3.3905   3.5408
     3.7682   8.2210  15.1930  16.6383  20.1107  24.1266

     occupation numbers 
     1.0000   1.0000   1.0000   1.0000   1.0000   1.0000   1.0000   1.0000
     1.0000   1.0000   0.0000   0.0000   0.0000   0.0000

          k = 0.2568 0.3424 0.4280 (   720 PWs)   bands (ev):

  -115.6336 -69.7968 -69.7923 -69.7860   3.0564   3.2931   3.3835   3.5583
     3.9121   9.5919  13.4724  17.2942  20.8121  22.6220

     occupation numbers 
     1.0000   1.0000   1.0000   1.0000   1.0000   1.0000   1.0000   1.0000
     1.0000   1.0000   0.0000   0.0000   0.0000   0.0000

          k = 0.2568 0.3424-0.5136 (   720 PWs)   bands (ev):

  -115.6334 -69.7985 -69.7921 -69.7859   3.0279   3.2711   3.3877   3.5632
     3.9658  10.8305  11.9806  17.9777  20.4912  23.0022

     occupation numbers 
     1.0000   1.0000   1.0000   1.0000   1.0000   1.0000   1.0000   1.0000
     1.0000   0.0392   0.0000   0.0000   0.0000   0.0000

          k = 0.2568 0.4280 0.4280 (   712 PWs)   bands (ev):

  -115.6332 -69.7965 -69.7964 -69.7857   2.9651   3.3020   3.3214   3.5963
     4.0720  10.9145  14.0026  15.7073  19.5730  23.1208

     occupation numbers 
     1.0000   1.0000   1.0000   1.0000   1.0000   1.0000   1.0000   1.0000
     1.0000   0.0080   0.0000   0.0000   0.0000   0.0000

          k = 0.2568 0.4280-0.5136 (   718 PWs)   bands (ev):

  -115.6331 -69.7981 -69.7963 -69.7856   2.9313   3.2865   3.3190   3.6061
     4.1336  12.1434  13.0297  15.8184  18.7039  24.1987

     occupation numbers 
     1.0000   1.0000   1.0000   1.0000   1.0000   1.0000   1.0000   1.0000
     1.0000   0.0000   0.0000   0.0000   0.0000   0.0000

          k = 0.2568-0.5136-0.5136 (   732 PWs)   bands (ev):

  -115.6330 -69.7981 -69.7981 -69.7856   2.8958   3.2938   3.2938   3.6173
     4.1986  13.5815  13.5815  14.0723  17.9018  25.5635

     occupation numbers 
     1.0000   1.0000   1.0000   1.0000   1.0000   1.0000   1.0000   1.0000
     1.0000   0.0000   0.0000   0.0000   0.0000   0.0000

          k = 0.3424 0.3424 0.3424 (   717 PWs)   bands (ev):

  -115.6334 -69.7923 -69.7920 -69.7920   3.1237   3.2661   3.2661   3.7812
     3.7812   9.2774  16.2199  16.2199  18.9584  24.9077

     occupation numbers 
     1.0000   1.0000   1.0000   1.0000   1.0000   1.0000   1.0000   1.0000
     1.0000   1.0000   0.0000   0.0000   0.0000   0.0000

          k = 0.3424 0.3424 0.4280 (   721 PWs)   bands (ev):

  -115.6331 -69.7964 -69.7920 -69.7917   3.0693   3.1791   3.2599   3.7901
     3.9614  10.6226  14.4287  17.2907  19.7234  23.0707

     occupation numbers 
     1.0000   1.0000   1.0000   1.0000   1.0000   1.0000   1.0000   1.0000
     1.0000   0.4867   0.0000   0.0000   0.0000   0.0000

          k = 0.3424 0.3424-0.5136 (   712 PWs)   bands (ev):

  -115.6330 -69.7979 -69.7917 -69.7915   3.0434   3.1481   3.2645   3.7933
     4.0263  11.8194  12.9965  17.8561  20.8685  21.5855

     occupation numbers 
     1.0000   1.0000   1.0000   1.0000   1.0000   1.0000   1.0000   1.0000
     1.0000   0.0000   0.0000   0.0000   0.0000   0.0000

          k = 0.3424 0.4280 0.4280 (   713 PWs)   bands (ev):

  -115.6328 -69.7960 -69.7959 -69.7915   3.0129   3.1606   3.1779   3.8779
     4.0812  11.9291  15.0323  16.2619  19.8143  21.6730

     occupation numbers 
     1.0000   1.0000   1.0000   1.0000   1.0000   1.0000   1.0000   1.0000
     1.0000   0.0000   0.0000   0.0000   0.0000   0.0000

          k = 0.3424 0.4280-0.5136 (   714 PWs)   bands (ev):

  -115.6327 -69.7976 -69.7958 -69.7914   2.9825   3.1373   3.1761   3.8912
     4.1433  13.1169  14.0528  16.4653  19.5533  22.0030

     occupation numbers 
     1.0000   1.0000   1.0000   1.0000   1.0000   1.0000   1.0000   1.0000
     1.0000   0.0000   0.0000   0.0000   0.0000   0.0000

          k = 0.3424-0.5136-0.5136 (   712 PWs)   bands (ev):

  -115.6326 -69.7974 -69.7974 -69.7912   2.9501   3.1447   3.1447   3.9095
     4.2034  14.6136  14.6136  14.8015  18.7790  23.0794

     occupation numbers 
     1.0000   1.0000   1.0000   1.0000   1.0000   1.0000   1.0000   1.0000
     1.0000   0.0000   0.0000   0.0000   0.0000   0.0000

          k = 0.4280 0.4280 0.4280 (   696 PWs)   bands (ev):

  -115.6325 -69.7955 -69.7955 -69.7955   3.0313   3.0786   3.0786   4.0874
     4.0874  13.1897  16.0731  16.0731  19.5508  22.3087

     occupation numbers 
     1.0000   1.0000   1.0000   1.0000   1.0000   1.0000   1.0000   1.0000
     1.0000   0.0000   0.0000   0.0000   0.0000   0.0000

          k = 0.4280 0.4280-0.5136 (   706 PWs)   bands (ev):

  -115.6324 -69.7973 -69.7955 -69.7954   3.0110   3.0432   3.0767   4.0896
     4.1643  14.3261  15.1012  16.5984  20.2669  20.8811

     occupation numbers 
     1.0000   1.0000   1.0000   1.0000   1.0000   1.0000   1.0000   1.0000
     1.0000   0.0000   0.0000   0.0000   0.0000   0.0000

          k = 0.4280-0.5136-0.5136 (   704 PWs)   bands (ev):

  -115.6323 -69.7971 -69.7971 -69.7953   2.9901   3.0414   3.0414   4.1276
     4.2069  15.6446  15.6446  15.6607  19.9373  21.1081

     occupation numbers 
     1.0000   1.0000   1.0000   1.0000   1.0000   1.0000   1.0000   1.0000
     1.0000   0.0000   0.0000   0.0000   0.0000   0.0000

          k =-0.5136-0.5136-0.5136 (   720 PWs)   bands (ev):

  -115.6322 -69.7971 -69.7971 -69.7971   3.0046   3.0046   3.0046   4.2082
     4.2082  16.1568  16.1568  16.1568  20.2311  21.3008

     occupation numbers 
     1.0000   1.0000   1.0000   1.0000   1.0000   1.0000   1.0000   1.0000
     1.0000   0.0000   0.0000   0.0000   0.0000   0.0000

     the Fermi energy is    10.6469 ev

!    total energy              =    -461.53715293 Ry
     estimated scf accuracy    <          6.6E-11 Ry
     smearing contrib. (-TS)   =      -0.00021243 Ry
     internal energy E=F+TS    =    -461.53694051 Ry

     The total energy is F=E-TS. E is the sum of the following terms:
     one-electron contribution =    -391.33942544 Ry
     hartree contribution      =     201.10456926 Ry
     xc contribution           =     -42.13890120 Ry
     ewald contribution        =    -229.16318312 Ry
     one-center paw contrib.   =       0.00000000 Ry
      -> PAW hartree energy AE =       0.00000000 Ry
      -> PAW hartree energy PS =       0.00000000 Ry
      -> PAW xc energy AE      =       0.00000000 Ry
      -> PAW xc energy PS      =       0.00000000 Ry
      -> total E_H with PAW    =     201.10456926 Ry
      -> total E_XC with PAW   =     -42.13890120 Ry

     convergence has been achieved in   9 iterations

     Forces acting on atoms (cartesian axes, Ry/au):

     atom    1 type  2   force =     0.00000000    0.00000000    0.00000000
     The non-local contrib.  to forces
     atom    1 type  2   force =     0.00000000    0.00000000    0.00000000
     The ionic contribution  to forces
     atom    1 type  2   force =    -0.00000000   -0.00000000   -0.00000000
     The local contribution  to forces
     atom    1 type  2   force =     0.00000000    0.00000000   -0.00000000
     The core correction contribution to forces
     atom    1 type  2   force =     0.00000000    0.00000000    0.00000000
     The Hubbard contrib.    to forces
     atom    1 type  2   force =     0.00000000    0.00000000    0.00000000
     The SCF correction term to forces
     atom    1 type  2   force =    -0.00000000   -0.00000000   -0.00000000

     Total force =     0.000000     Total SCF correction =     0.000000


     Computing stress (Cartesian axis) and pressure

          total   stress  (Ry/bohr**3)                   (kbar)     P=       -3.10
  -0.00002110   0.00000000   0.00000000           -3.10        0.00        0.00
   0.00000000  -0.00002110   0.00000000            0.00       -3.10        0.00
   0.00000000   0.00000000  -0.00002110            0.00        0.00       -3.10

     kinetic stress (kbar)  32505.05      0.00      0.00
                                0.00  32505.05      0.00
                                0.00      0.00  32505.05

     local   stress (kbar)  -1347.56      0.00      0.00
                                0.00  -1347.56     -0.00
                                0.00     -0.00  -1347.56

     nonloc. stress (kbar)  -3484.08      0.00      0.00
                                0.00  -3484.08      0.00
                                0.00      0.00  -3484.08

     hartree stress (kbar)  81183.60     -0.00     -0.00
                               -0.00  81183.60      0.00
                               -0.00      0.00  81183.60

     exc-cor stress (kbar) -16349.58     -0.00      0.00
                               -0.00 -16349.58     -0.00
                                0.00     -0.00 -16349.58

     corecor stress (kbar)      0.00      0.00      0.00
                                0.00      0.00      0.00
                                0.00      0.00      0.00

     ewald   stress (kbar) -92510.54     -0.00     -0.00
                               -0.00 -92510.54     -0.00
                               -0.00     -0.00 -92510.54

     hubbard stress (kbar)      0.00      0.00      0.00
                                0.00      0.00      0.00
                                0.00      0.00      0.00

     DFT-D   stress (kbar)      0.00      0.00      0.00
                                0.00      0.00      0.00
                                0.00      0.00      0.00

     XDM     stress (kbar)      0.00      0.00      0.00
                                0.00      0.00      0.00
                                0.00      0.00      0.00

     dft-nl  stress (kbar)      0.00      0.00      0.00
                                0.00      0.00      0.00
                                0.00      0.00      0.00

     TS-vdW  stress (kbar)      0.00      0.00      0.00
                                0.00      0.00      0.00
                                0.00      0.00      0.00

     MDB     stress (kbar)      0.00      0.00      0.00
                                0.00      0.00      0.00
                                0.00      0.00      0.00

     3D-RISM stress (kbar)      0.00      0.00      0.00
                                0.00      0.00      0.00
                                0.00      0.00      0.00


     Writing all to output data dir ./temp_cubic/aiida.save/ :
     XML data file, charge density, pseudopotentials, collected wavefunctions

     init_run     :     30.38s CPU      1.79s WALL (       2 calls)
     electrons    :   2257.36s CPU     96.62s WALL (       6 calls)
     update_pot   :      1.74s CPU      0.12s WALL (       4 calls)
     forces       :     25.81s CPU      1.24s WALL (       6 calls)
     stress       :     40.72s CPU      3.13s WALL (       6 calls)

     Called by init_run:
     wfcinit      :     26.06s CPU      1.09s WALL (       2 calls)
     wfcinit:atom :      0.84s CPU      0.03s WALL (     168 calls)
     wfcinit:wfcr :     23.92s CPU      1.01s WALL (     168 calls)
     potinit      :      1.14s CPU      0.09s WALL (       2 calls)
     hinit0       :      1.96s CPU      0.50s WALL (       2 calls)

     Called by electrons:
     c_bands      :   1998.84s CPU     83.81s WALL (      38 calls)
     sum_band     :    236.01s CPU     10.97s WALL (      38 calls)
     v_of_rho     :      5.06s CPU      0.29s WALL (      39 calls)
     v_h          :      1.36s CPU      0.05s WALL (      39 calls)
     v_xc         :      4.58s CPU      0.30s WALL (      51 calls)
     newd         :     15.96s CPU      1.43s WALL (      39 calls)
     PAW_pot      :      0.03s CPU      0.00s WALL (      43 calls)
     mix_rho      :      0.95s CPU      0.07s WALL (      38 calls)

     Called by c_bands:
     init_us_2    :     37.34s CPU      1.55s WALL (    7896 calls)
     cegterg      :   1815.21s CPU     76.44s WALL (    3192 calls)

     Called by sum_band:
     sum_band:wei :      0.72s CPU      0.03s WALL (      38 calls)
     sum_band:loo :    219.42s CPU      9.18s WALL (      38 calls)
     sum_band:buf :      1.88s CPU      0.08s WALL (    3192 calls)
     sum_band:ini :     13.85s CPU      0.45s WALL (    3192 calls)
     sum_band:cal :     28.03s CPU      1.03s WALL (    3528 calls)
     sum_band:bec :      4.17s CPU      0.18s WALL (    3528 calls)
     addusdens    :     15.22s CPU      1.64s WALL (      38 calls)
                                        0.00s GPU  (      38 calls)
     addusd:skk   :      0.02s CPU      0.00s WALL (      76 calls)
                                        0.00s GPU  (      76 calls)

     Called by *egterg:
     cdiaghg      :     44.84s CPU      1.82s WALL (    9685 calls)
     cegterg:over :    119.62s CPU      4.60s WALL (    7249 calls)
     cegterg:upda :     82.90s CPU      3.42s WALL (    7249 calls)
     cegterg:last :    144.57s CPU      6.27s WALL (    6388 calls)
     h_psi        :   1259.74s CPU     53.86s WALL (   10609 calls)
     s_psi        :     69.66s CPU      2.80s WALL (   10609 calls)
     g_psi        :     22.43s CPU      1.08s WALL (    7249 calls)

     Called by h_psi:
     h_psi:calbec :     62.76s CPU      2.60s WALL (   10609 calls)
     vloc_psi     :   1100.96s CPU     46.96s WALL (   10609 calls)
     add_vuspsi   :     63.02s CPU      2.83s WALL (   10609 calls)

     General routines
     calbec       :    106.25s CPU      4.29s WALL (   16657 calls)
     fft          :      3.87s CPU      0.27s WALL (     654 calls)
     ffts         :      0.23s CPU      0.01s WALL (      77 calls)
     fftw         :    561.10s CPU     23.91s WALL (  278918 calls)
     interpolate  :      0.70s CPU      0.02s WALL (      39 calls)

     Parallel routines

     PAW routines
     PAW_pot      :      0.03s CPU      0.00s WALL (      43 calls)
     PAW_symme    :      0.00s CPU      0.00s WALL (      81 calls)

     PWSCF        :  39m39.79s CPU   1m44.64s WALL


   This run was terminated on:  23:17:55   8Jun2024            

=------------------------------------------------------------------------------=
   JOB DONE.
=------------------------------------------------------------------------------=
