
     Program PWSCF v.7.3.1 starts on  7Jun2024 at 23:40:52 

     This program is part of the open-source Quantum ESPRESSO suite
     for quantum simulation of materials; please cite
         "P. Giannozzi et al., J. Phys.:Condens. Matter 21 395502 (2009);
         "P. Giannozzi et al., J. Phys.:Condens. Matter 29 465901 (2017);
         "P. Giannozzi et al., J. Chem. Phys. 152 154105 (2020);
          URL http://www.quantum-espresso.org", 
     in publications or presentations arising from this work. More details at
     http://www.quantum-espresso.org/quote

     Parallel version (MPI & OpenMP), running on      24 processor cores
     Number of MPI processes:                 1
     Threads/MPI process:                    24

     MPI processes distributed on     1 nodes
     4226 MiB available memory on the printing compute node when the environment starts

     Waiting for input...
     Reading input from standard input

     Current dimensions of program PWSCF are:
     Max number of different atomic species (ntypx) = 10
     Max number of k-points (npk) =  40000
     Max angular momentum in pseudopotentials (lmaxx) =  4
     file O.pbe-n-kjpaw_psl.0.1.UPF: wavefunction(s)  2P renormalized
     Message from routine setup:
     using ibrav=0 with symmetry is DISCOURAGED, use correct ibrav instead

     Subspace diagonalization in iterative solution of the eigenvalue problem:
     a serial algorithm will be used


     G-vector sticks info
     --------------------
     sticks:   dense  smooth     PW     G-vecs:    dense   smooth      PW
     Sum        1093     553    177                27081     9627    1743

     Using Slab Decomposition



     bravais-lattice index     =            0
     lattice parameter (alat)  =       5.8499  a.u.
     unit-cell volume          =     200.1915 (a.u.)^3
     number of atoms/cell      =            2
     number of atomic types    =            2
     number of electrons       =        26.00
     number of Kohn-Sham states=           17
     kinetic-energy cutoff     =      50.0000  Ry
     charge density cutoff     =     400.0000  Ry
     scf convergence threshold =      1.0E-08
     mixing beta               =       0.4000
     number of iterations used =            8  plain     mixing
     Exchange-correlation= SLA  PW   PBE  PBE
                           (   1   4   3   4   0   0   0)

     celldm(1)=   5.849901  celldm(2)=   0.000000  celldm(3)=   0.000000
     celldm(4)=   0.000000  celldm(5)=   0.000000  celldm(6)=   0.000000

     crystal axes: (cart. coord. in units of alat)
               a(1) = (   1.000000   0.000000   0.000000 )  
               a(2) = (   0.000000   1.000000   0.000000 )  
               a(3) = (   0.000000   0.000000   1.000000 )  

     reciprocal axes: (cart. coord. in units 2 pi/alat)
               b(1) = (  1.000000  0.000000  0.000000 )  
               b(2) = (  0.000000  1.000000  0.000000 )  
               b(3) = (  0.000000  0.000000  1.000000 )  


     PseudoPot. # 1 for O  read from file:
     ../SSSP_1.3.0_PBE_efficiency/O.pbe-n-kjpaw_psl.0.1.UPF
     MD5 check sum: 0234752ac141de4415c5fc33072bef88
     Pseudo is Projector augmented-wave + core cor, Zval =  6.0
     Generated using "atomic" code by A. Dal Corso  v.5.0.99 svn rev. 10869
     Shape of augmentation charge: BESSEL
     Using radial grid of 1095 points,  4 beta functions with: 
                l(1) =   0
                l(2) =   0
                l(3) =   1
                l(4) =   1
     Q(r) pseudized with 0 coefficients 


     PseudoPot. # 2 for Zn read from file:
     ../SSSP_1.3.0_PBE_efficiency/Zn_pbe_v1.uspp.F.UPF
     MD5 check sum: df62231357ef9e81f77b2b3087fa5675
     Pseudo is Ultrasoft, Zval = 20.0
     Generated by new atomic code, or converted to UPF format
     Using radial grid of  943 points,  6 beta functions with: 
                l(1) =   0
                l(2) =   0
                l(3) =   1
                l(4) =   1
                l(5) =   2
                l(6) =   2
     Q(r) pseudized with  8 coefficients,  rinner =    1.100   1.100   1.100
                                                       1.100   1.100

     atomic species   valence    mass     pseudopotential
     O                 6.00    15.99940     O ( 1.00)
     Zn               20.00    65.38000     Zn( 1.00)

     48 Sym. Ops., with inversion, found


                                    s                        frac. trans.

      isym =  1     identity                                     

 cryst.   s( 1) = (     1          0          0      )
                  (     0          1          0      )
                  (     0          0          1      )

 cart.    s( 1) = (  1.0000000  0.0000000  0.0000000 )
                  (  0.0000000  1.0000000  0.0000000 )
                  (  0.0000000  0.0000000  1.0000000 )


      isym =  2     180 deg rotation - cart. axis [0,0,1]        

 cryst.   s( 2) = (    -1          0          0      )
                  (     0         -1          0      )
                  (     0          0          1      )

 cart.    s( 2) = ( -1.0000000  0.0000000  0.0000000 )
                  (  0.0000000 -1.0000000  0.0000000 )
                  (  0.0000000  0.0000000  1.0000000 )


      isym =  3     180 deg rotation - cart. axis [0,1,0]        

 cryst.   s( 3) = (    -1          0          0      )
                  (     0          1          0      )
                  (     0          0         -1      )

 cart.    s( 3) = ( -1.0000000  0.0000000  0.0000000 )
                  (  0.0000000  1.0000000  0.0000000 )
                  (  0.0000000  0.0000000 -1.0000000 )


      isym =  4     180 deg rotation - cart. axis [1,0,0]        

 cryst.   s( 4) = (     1          0          0      )
                  (     0         -1          0      )
                  (     0          0         -1      )

 cart.    s( 4) = (  1.0000000  0.0000000  0.0000000 )
                  (  0.0000000 -1.0000000  0.0000000 )
                  (  0.0000000  0.0000000 -1.0000000 )


      isym =  5     180 deg rotation - cart. axis [1,1,0]        

 cryst.   s( 5) = (     0          1          0      )
                  (     1          0          0      )
                  (     0          0         -1      )

 cart.    s( 5) = (  0.0000000  1.0000000  0.0000000 )
                  (  1.0000000  0.0000000  0.0000000 )
                  (  0.0000000  0.0000000 -1.0000000 )


      isym =  6     180 deg rotation - cart. axis [1,-1,0]       

 cryst.   s( 6) = (     0         -1          0      )
                  (    -1          0          0      )
                  (     0          0         -1      )

 cart.    s( 6) = (  0.0000000 -1.0000000  0.0000000 )
                  ( -1.0000000  0.0000000  0.0000000 )
                  (  0.0000000  0.0000000 -1.0000000 )


      isym =  7      90 deg rotation - cart. axis [0,0,-1]       

 cryst.   s( 7) = (     0         -1          0      )
                  (     1          0          0      )
                  (     0          0          1      )

 cart.    s( 7) = (  0.0000000  1.0000000  0.0000000 )
                  ( -1.0000000  0.0000000  0.0000000 )
                  (  0.0000000  0.0000000  1.0000000 )


      isym =  8      90 deg rotation - cart. axis [0,0,1]        

 cryst.   s( 8) = (     0          1          0      )
                  (    -1          0          0      )
                  (     0          0          1      )

 cart.    s( 8) = (  0.0000000 -1.0000000  0.0000000 )
                  (  1.0000000  0.0000000  0.0000000 )
                  (  0.0000000  0.0000000  1.0000000 )


      isym =  9     180 deg rotation - cart. axis [1,0,1]        

 cryst.   s( 9) = (     0          0          1      )
                  (     0         -1          0      )
                  (     1          0          0      )

 cart.    s( 9) = (  0.0000000  0.0000000  1.0000000 )
                  (  0.0000000 -1.0000000  0.0000000 )
                  (  1.0000000  0.0000000  0.0000000 )


      isym = 10     180 deg rotation - cart. axis [-1,0,1]       

 cryst.   s(10) = (     0          0         -1      )
                  (     0         -1          0      )
                  (    -1          0          0      )

 cart.    s(10) = (  0.0000000  0.0000000 -1.0000000 )
                  (  0.0000000 -1.0000000  0.0000000 )
                  ( -1.0000000  0.0000000  0.0000000 )


      isym = 11      90 deg rotation - cart. axis [0,1,0]        

 cryst.   s(11) = (     0          0         -1      )
                  (     0          1          0      )
                  (     1          0          0      )

 cart.    s(11) = (  0.0000000  0.0000000  1.0000000 )
                  (  0.0000000  1.0000000  0.0000000 )
                  ( -1.0000000  0.0000000  0.0000000 )


      isym = 12      90 deg rotation - cart. axis [0,-1,0]       

 cryst.   s(12) = (     0          0          1      )
                  (     0          1          0      )
                  (    -1          0          0      )

 cart.    s(12) = (  0.0000000  0.0000000 -1.0000000 )
                  (  0.0000000  1.0000000  0.0000000 )
                  (  1.0000000  0.0000000  0.0000000 )


      isym = 13     180 deg rotation - cart. axis [0,1,1]        

 cryst.   s(13) = (    -1          0          0      )
                  (     0          0          1      )
                  (     0          1          0      )

 cart.    s(13) = ( -1.0000000  0.0000000  0.0000000 )
                  (  0.0000000  0.0000000  1.0000000 )
                  (  0.0000000  1.0000000  0.0000000 )


      isym = 14     180 deg rotation - cart. axis [0,1,-1]       

 cryst.   s(14) = (    -1          0          0      )
                  (     0          0         -1      )
                  (     0         -1          0      )

 cart.    s(14) = ( -1.0000000  0.0000000  0.0000000 )
                  (  0.0000000  0.0000000 -1.0000000 )
                  (  0.0000000 -1.0000000  0.0000000 )


      isym = 15      90 deg rotation - cart. axis [-1,0,0]       

 cryst.   s(15) = (     1          0          0      )
                  (     0          0         -1      )
                  (     0          1          0      )

 cart.    s(15) = (  1.0000000  0.0000000  0.0000000 )
                  (  0.0000000  0.0000000  1.0000000 )
                  (  0.0000000 -1.0000000  0.0000000 )


      isym = 16      90 deg rotation - cart. axis [1,0,0]        

 cryst.   s(16) = (     1          0          0      )
                  (     0          0          1      )
                  (     0         -1          0      )

 cart.    s(16) = (  1.0000000  0.0000000  0.0000000 )
                  (  0.0000000  0.0000000 -1.0000000 )
                  (  0.0000000  1.0000000  0.0000000 )


      isym = 17     120 deg rotation - cart. axis [-1,-1,-1]     

 cryst.   s(17) = (     0          0          1      )
                  (     1          0          0      )
                  (     0          1          0      )

 cart.    s(17) = (  0.0000000  1.0000000  0.0000000 )
                  (  0.0000000  0.0000000  1.0000000 )
                  (  1.0000000  0.0000000  0.0000000 )


      isym = 18     120 deg rotation - cart. axis [-1,1,1]       

 cryst.   s(18) = (     0          0         -1      )
                  (    -1          0          0      )
                  (     0          1          0      )

 cart.    s(18) = (  0.0000000 -1.0000000  0.0000000 )
                  (  0.0000000  0.0000000  1.0000000 )
                  ( -1.0000000  0.0000000  0.0000000 )


      isym = 19     120 deg rotation - cart. axis [1,1,-1]       

 cryst.   s(19) = (     0          0         -1      )
                  (     1          0          0      )
                  (     0         -1          0      )

 cart.    s(19) = (  0.0000000  1.0000000  0.0000000 )
                  (  0.0000000  0.0000000 -1.0000000 )
                  ( -1.0000000  0.0000000  0.0000000 )


      isym = 20     120 deg rotation - cart. axis [1,-1,1]       

 cryst.   s(20) = (     0          0          1      )
                  (    -1          0          0      )
                  (     0         -1          0      )

 cart.    s(20) = (  0.0000000 -1.0000000  0.0000000 )
                  (  0.0000000  0.0000000 -1.0000000 )
                  (  1.0000000  0.0000000  0.0000000 )


      isym = 21     120 deg rotation - cart. axis [1,1,1]        

 cryst.   s(21) = (     0          1          0      )
                  (     0          0          1      )
                  (     1          0          0      )

 cart.    s(21) = (  0.0000000  0.0000000  1.0000000 )
                  (  1.0000000  0.0000000  0.0000000 )
                  (  0.0000000  1.0000000  0.0000000 )


      isym = 22     120 deg rotation - cart. axis [-1,1,-1]      

 cryst.   s(22) = (     0         -1          0      )
                  (     0          0         -1      )
                  (     1          0          0      )

 cart.    s(22) = (  0.0000000  0.0000000  1.0000000 )
                  ( -1.0000000  0.0000000  0.0000000 )
                  (  0.0000000 -1.0000000  0.0000000 )


      isym = 23     120 deg rotation - cart. axis [1,-1,-1]      

 cryst.   s(23) = (     0         -1          0      )
                  (     0          0          1      )
                  (    -1          0          0      )

 cart.    s(23) = (  0.0000000  0.0000000 -1.0000000 )
                  ( -1.0000000  0.0000000  0.0000000 )
                  (  0.0000000  1.0000000  0.0000000 )


      isym = 24     120 deg rotation - cart. axis [-1,-1,1]      

 cryst.   s(24) = (     0          1          0      )
                  (     0          0         -1      )
                  (    -1          0          0      )

 cart.    s(24) = (  0.0000000  0.0000000 -1.0000000 )
                  (  1.0000000  0.0000000  0.0000000 )
                  (  0.0000000 -1.0000000  0.0000000 )


      isym = 25     inversion                                    

 cryst.   s(25) = (    -1          0          0      )
                  (     0         -1          0      )
                  (     0          0         -1      )

 cart.    s(25) = ( -1.0000000  0.0000000  0.0000000 )
                  (  0.0000000 -1.0000000  0.0000000 )
                  (  0.0000000  0.0000000 -1.0000000 )


      isym = 26     inv. 180 deg rotation - cart. axis [0,0,1]   

 cryst.   s(26) = (     1          0          0      )
                  (     0          1          0      )
                  (     0          0         -1      )

 cart.    s(26) = (  1.0000000  0.0000000  0.0000000 )
                  (  0.0000000  1.0000000  0.0000000 )
                  (  0.0000000  0.0000000 -1.0000000 )


      isym = 27     inv. 180 deg rotation - cart. axis [0,1,0]   

 cryst.   s(27) = (     1          0          0      )
                  (     0         -1          0      )
                  (     0          0          1      )

 cart.    s(27) = (  1.0000000  0.0000000  0.0000000 )
                  (  0.0000000 -1.0000000  0.0000000 )
                  (  0.0000000  0.0000000  1.0000000 )


      isym = 28     inv. 180 deg rotation - cart. axis [1,0,0]   

 cryst.   s(28) = (    -1          0          0      )
                  (     0          1          0      )
                  (     0          0          1      )

 cart.    s(28) = ( -1.0000000  0.0000000  0.0000000 )
                  (  0.0000000  1.0000000  0.0000000 )
                  (  0.0000000  0.0000000  1.0000000 )


      isym = 29     inv. 180 deg rotation - cart. axis [1,1,0]   

 cryst.   s(29) = (     0         -1          0      )
                  (    -1          0          0      )
                  (     0          0          1      )

 cart.    s(29) = (  0.0000000 -1.0000000  0.0000000 )
                  ( -1.0000000  0.0000000  0.0000000 )
                  (  0.0000000  0.0000000  1.0000000 )


      isym = 30     inv. 180 deg rotation - cart. axis [1,-1,0]  

 cryst.   s(30) = (     0          1          0      )
                  (     1          0          0      )
                  (     0          0          1      )

 cart.    s(30) = (  0.0000000  1.0000000  0.0000000 )
                  (  1.0000000  0.0000000  0.0000000 )
                  (  0.0000000  0.0000000  1.0000000 )


      isym = 31     inv.  90 deg rotation - cart. axis [0,0,-1]  

 cryst.   s(31) = (     0          1          0      )
                  (    -1          0          0      )
                  (     0          0         -1      )

 cart.    s(31) = (  0.0000000 -1.0000000  0.0000000 )
                  (  1.0000000  0.0000000  0.0000000 )
                  (  0.0000000  0.0000000 -1.0000000 )


      isym = 32     inv.  90 deg rotation - cart. axis [0,0,1]   

 cryst.   s(32) = (     0         -1          0      )
                  (     1          0          0      )
                  (     0          0         -1      )

 cart.    s(32) = (  0.0000000  1.0000000  0.0000000 )
                  ( -1.0000000  0.0000000  0.0000000 )
                  (  0.0000000  0.0000000 -1.0000000 )


      isym = 33     inv. 180 deg rotation - cart. axis [1,0,1]   

 cryst.   s(33) = (     0          0         -1      )
                  (     0          1          0      )
                  (    -1          0          0      )

 cart.    s(33) = (  0.0000000  0.0000000 -1.0000000 )
                  (  0.0000000  1.0000000  0.0000000 )
                  ( -1.0000000  0.0000000  0.0000000 )


      isym = 34     inv. 180 deg rotation - cart. axis [-1,0,1]  

 cryst.   s(34) = (     0          0          1      )
                  (     0          1          0      )
                  (     1          0          0      )

 cart.    s(34) = (  0.0000000  0.0000000  1.0000000 )
                  (  0.0000000  1.0000000  0.0000000 )
                  (  1.0000000  0.0000000  0.0000000 )


      isym = 35     inv.  90 deg rotation - cart. axis [0,1,0]   

 cryst.   s(35) = (     0          0          1      )
                  (     0         -1          0      )
                  (    -1          0          0      )

 cart.    s(35) = (  0.0000000  0.0000000 -1.0000000 )
                  (  0.0000000 -1.0000000  0.0000000 )
                  (  1.0000000  0.0000000  0.0000000 )


      isym = 36     inv.  90 deg rotation - cart. axis [0,-1,0]  

 cryst.   s(36) = (     0          0         -1      )
                  (     0         -1          0      )
                  (     1          0          0      )

 cart.    s(36) = (  0.0000000  0.0000000  1.0000000 )
                  (  0.0000000 -1.0000000  0.0000000 )
                  ( -1.0000000  0.0000000  0.0000000 )


      isym = 37     inv. 180 deg rotation - cart. axis [0,1,1]   

 cryst.   s(37) = (     1          0          0      )
                  (     0          0         -1      )
                  (     0         -1          0      )

 cart.    s(37) = (  1.0000000  0.0000000  0.0000000 )
                  (  0.0000000  0.0000000 -1.0000000 )
                  (  0.0000000 -1.0000000  0.0000000 )


      isym = 38     inv. 180 deg rotation - cart. axis [0,1,-1]  

 cryst.   s(38) = (     1          0          0      )
                  (     0          0          1      )
                  (     0          1          0      )

 cart.    s(38) = (  1.0000000  0.0000000  0.0000000 )
                  (  0.0000000  0.0000000  1.0000000 )
                  (  0.0000000  1.0000000  0.0000000 )


      isym = 39     inv.  90 deg rotation - cart. axis [-1,0,0]  

 cryst.   s(39) = (    -1          0          0      )
                  (     0          0          1      )
                  (     0         -1          0      )

 cart.    s(39) = ( -1.0000000  0.0000000  0.0000000 )
                  (  0.0000000  0.0000000 -1.0000000 )
                  (  0.0000000  1.0000000  0.0000000 )


      isym = 40     inv.  90 deg rotation - cart. axis [1,0,0]   

 cryst.   s(40) = (    -1          0          0      )
                  (     0          0         -1      )
                  (     0          1          0      )

 cart.    s(40) = ( -1.0000000  0.0000000  0.0000000 )
                  (  0.0000000  0.0000000  1.0000000 )
                  (  0.0000000 -1.0000000  0.0000000 )


      isym = 41     inv. 120 deg rotation - cart. axis [-1,-1,-1]

 cryst.   s(41) = (     0          0         -1      )
                  (    -1          0          0      )
                  (     0         -1          0      )

 cart.    s(41) = (  0.0000000 -1.0000000  0.0000000 )
                  (  0.0000000  0.0000000 -1.0000000 )
                  ( -1.0000000  0.0000000  0.0000000 )


      isym = 42     inv. 120 deg rotation - cart. axis [-1,1,1]  

 cryst.   s(42) = (     0          0          1      )
                  (     1          0          0      )
                  (     0         -1          0      )

 cart.    s(42) = (  0.0000000  1.0000000  0.0000000 )
                  (  0.0000000  0.0000000 -1.0000000 )
                  (  1.0000000  0.0000000  0.0000000 )


      isym = 43     inv. 120 deg rotation - cart. axis [1,1,-1]  

 cryst.   s(43) = (     0          0          1      )
                  (    -1          0          0      )
                  (     0          1          0      )

 cart.    s(43) = (  0.0000000 -1.0000000  0.0000000 )
                  (  0.0000000  0.0000000  1.0000000 )
                  (  1.0000000  0.0000000  0.0000000 )


      isym = 44     inv. 120 deg rotation - cart. axis [1,-1,1]  

 cryst.   s(44) = (     0          0         -1      )
                  (     1          0          0      )
                  (     0          1          0      )

 cart.    s(44) = (  0.0000000  1.0000000  0.0000000 )
                  (  0.0000000  0.0000000  1.0000000 )
                  ( -1.0000000  0.0000000  0.0000000 )


      isym = 45     inv. 120 deg rotation - cart. axis [1,1,1]   

 cryst.   s(45) = (     0         -1          0      )
                  (     0          0         -1      )
                  (    -1          0          0      )

 cart.    s(45) = (  0.0000000  0.0000000 -1.0000000 )
                  ( -1.0000000  0.0000000  0.0000000 )
                  (  0.0000000 -1.0000000  0.0000000 )


      isym = 46     inv. 120 deg rotation - cart. axis [-1,1,-1] 

 cryst.   s(46) = (     0          1          0      )
                  (     0          0          1      )
                  (    -1          0          0      )

 cart.    s(46) = (  0.0000000  0.0000000 -1.0000000 )
                  (  1.0000000  0.0000000  0.0000000 )
                  (  0.0000000  1.0000000  0.0000000 )


      isym = 47     inv. 120 deg rotation - cart. axis [1,-1,-1] 

 cryst.   s(47) = (     0          1          0      )
                  (     0          0         -1      )
                  (     1          0          0      )

 cart.    s(47) = (  0.0000000  0.0000000  1.0000000 )
                  (  1.0000000  0.0000000  0.0000000 )
                  (  0.0000000 -1.0000000  0.0000000 )


      isym = 48     inv. 120 deg rotation - cart. axis [-1,-1,1] 

 cryst.   s(48) = (     0         -1          0      )
                  (     0          0          1      )
                  (     1          0          0      )

 cart.    s(48) = (  0.0000000  0.0000000  1.0000000 )
                  ( -1.0000000  0.0000000  0.0000000 )
                  (  0.0000000  1.0000000  0.0000000 )


   Cartesian axes

     site n.     atom                  positions (alat units)
         1        Zn     tau(   1) = (   0.0000000   0.0000000   0.0000000  )
         2        O      tau(   2) = (   0.5000000   0.5000000   0.5000000  )

   Crystallographic axes

     site n.     atom                  positions (cryst. coord.)
         1        Zn     tau(   1) = (  0.0000000  0.0000000  0.0000000  )
         2        O      tau(   2) = (  0.5000000  0.5000000  0.5000000  )

     number of k points=    84  Marzari-Vanderbilt smearing, width (Ry)=  0.0147
                       cart. coord. in units 2pi/alat
        k(    1) = (   0.0000000   0.0000000   0.0000000), wk =   0.0011574
        k(    2) = (   0.0000000   0.0000000   0.0833333), wk =   0.0069444
        k(    3) = (   0.0000000   0.0000000   0.1666667), wk =   0.0069444
        k(    4) = (   0.0000000   0.0000000   0.2500000), wk =   0.0069444
        k(    5) = (   0.0000000   0.0000000   0.3333333), wk =   0.0069444
        k(    6) = (   0.0000000   0.0000000   0.4166667), wk =   0.0069444
        k(    7) = (   0.0000000   0.0000000  -0.5000000), wk =   0.0034722
        k(    8) = (   0.0000000   0.0833333   0.0833333), wk =   0.0138889
        k(    9) = (   0.0000000   0.0833333   0.1666667), wk =   0.0277778
        k(   10) = (   0.0000000   0.0833333   0.2500000), wk =   0.0277778
        k(   11) = (   0.0000000   0.0833333   0.3333333), wk =   0.0277778
        k(   12) = (   0.0000000   0.0833333   0.4166667), wk =   0.0277778
        k(   13) = (   0.0000000   0.0833333  -0.5000000), wk =   0.0138889
        k(   14) = (   0.0000000   0.1666667   0.1666667), wk =   0.0138889
        k(   15) = (   0.0000000   0.1666667   0.2500000), wk =   0.0277778
        k(   16) = (   0.0000000   0.1666667   0.3333333), wk =   0.0277778
        k(   17) = (   0.0000000   0.1666667   0.4166667), wk =   0.0277778
        k(   18) = (   0.0000000   0.1666667  -0.5000000), wk =   0.0138889
        k(   19) = (   0.0000000   0.2500000   0.2500000), wk =   0.0138889
        k(   20) = (   0.0000000   0.2500000   0.3333333), wk =   0.0277778
        k(   21) = (   0.0000000   0.2500000   0.4166667), wk =   0.0277778
        k(   22) = (   0.0000000   0.2500000  -0.5000000), wk =   0.0138889
        k(   23) = (   0.0000000   0.3333333   0.3333333), wk =   0.0138889
        k(   24) = (   0.0000000   0.3333333   0.4166667), wk =   0.0277778
        k(   25) = (   0.0000000   0.3333333  -0.5000000), wk =   0.0138889
        k(   26) = (   0.0000000   0.4166667   0.4166667), wk =   0.0138889
        k(   27) = (   0.0000000   0.4166667  -0.5000000), wk =   0.0138889
        k(   28) = (   0.0000000  -0.5000000  -0.5000000), wk =   0.0034722
        k(   29) = (   0.0833333   0.0833333   0.0833333), wk =   0.0092593
        k(   30) = (   0.0833333   0.0833333   0.1666667), wk =   0.0277778
        k(   31) = (   0.0833333   0.0833333   0.2500000), wk =   0.0277778
        k(   32) = (   0.0833333   0.0833333   0.3333333), wk =   0.0277778
        k(   33) = (   0.0833333   0.0833333   0.4166667), wk =   0.0277778
        k(   34) = (   0.0833333   0.0833333  -0.5000000), wk =   0.0138889
        k(   35) = (   0.0833333   0.1666667   0.1666667), wk =   0.0277778
        k(   36) = (   0.0833333   0.1666667   0.2500000), wk =   0.0555556
        k(   37) = (   0.0833333   0.1666667   0.3333333), wk =   0.0555556
        k(   38) = (   0.0833333   0.1666667   0.4166667), wk =   0.0555556
        k(   39) = (   0.0833333   0.1666667  -0.5000000), wk =   0.0277778
        k(   40) = (   0.0833333   0.2500000   0.2500000), wk =   0.0277778
        k(   41) = (   0.0833333   0.2500000   0.3333333), wk =   0.0555556
        k(   42) = (   0.0833333   0.2500000   0.4166667), wk =   0.0555556
        k(   43) = (   0.0833333   0.2500000  -0.5000000), wk =   0.0277778
        k(   44) = (   0.0833333   0.3333333   0.3333333), wk =   0.0277778
        k(   45) = (   0.0833333   0.3333333   0.4166667), wk =   0.0555556
        k(   46) = (   0.0833333   0.3333333  -0.5000000), wk =   0.0277778
        k(   47) = (   0.0833333   0.4166667   0.4166667), wk =   0.0277778
        k(   48) = (   0.0833333   0.4166667  -0.5000000), wk =   0.0277778
        k(   49) = (   0.0833333  -0.5000000  -0.5000000), wk =   0.0069444
        k(   50) = (   0.1666667   0.1666667   0.1666667), wk =   0.0092593
        k(   51) = (   0.1666667   0.1666667   0.2500000), wk =   0.0277778
        k(   52) = (   0.1666667   0.1666667   0.3333333), wk =   0.0277778
        k(   53) = (   0.1666667   0.1666667   0.4166667), wk =   0.0277778
        k(   54) = (   0.1666667   0.1666667  -0.5000000), wk =   0.0138889
        k(   55) = (   0.1666667   0.2500000   0.2500000), wk =   0.0277778
        k(   56) = (   0.1666667   0.2500000   0.3333333), wk =   0.0555556
        k(   57) = (   0.1666667   0.2500000   0.4166667), wk =   0.0555556
        k(   58) = (   0.1666667   0.2500000  -0.5000000), wk =   0.0277778
        k(   59) = (   0.1666667   0.3333333   0.3333333), wk =   0.0277778
        k(   60) = (   0.1666667   0.3333333   0.4166667), wk =   0.0555556
        k(   61) = (   0.1666667   0.3333333  -0.5000000), wk =   0.0277778
        k(   62) = (   0.1666667   0.4166667   0.4166667), wk =   0.0277778
        k(   63) = (   0.1666667   0.4166667  -0.5000000), wk =   0.0277778
        k(   64) = (   0.1666667  -0.5000000  -0.5000000), wk =   0.0069444
        k(   65) = (   0.2500000   0.2500000   0.2500000), wk =   0.0092593
        k(   66) = (   0.2500000   0.2500000   0.3333333), wk =   0.0277778
        k(   67) = (   0.2500000   0.2500000   0.4166667), wk =   0.0277778
        k(   68) = (   0.2500000   0.2500000  -0.5000000), wk =   0.0138889
        k(   69) = (   0.2500000   0.3333333   0.3333333), wk =   0.0277778
        k(   70) = (   0.2500000   0.3333333   0.4166667), wk =   0.0555556
        k(   71) = (   0.2500000   0.3333333  -0.5000000), wk =   0.0277778
        k(   72) = (   0.2500000   0.4166667   0.4166667), wk =   0.0277778
        k(   73) = (   0.2500000   0.4166667  -0.5000000), wk =   0.0277778
        k(   74) = (   0.2500000  -0.5000000  -0.5000000), wk =   0.0069444
        k(   75) = (   0.3333333   0.3333333   0.3333333), wk =   0.0092593
        k(   76) = (   0.3333333   0.3333333   0.4166667), wk =   0.0277778
        k(   77) = (   0.3333333   0.3333333  -0.5000000), wk =   0.0138889
        k(   78) = (   0.3333333   0.4166667   0.4166667), wk =   0.0277778
        k(   79) = (   0.3333333   0.4166667  -0.5000000), wk =   0.0277778
        k(   80) = (   0.3333333  -0.5000000  -0.5000000), wk =   0.0069444
        k(   81) = (   0.4166667   0.4166667   0.4166667), wk =   0.0092593
        k(   82) = (   0.4166667   0.4166667  -0.5000000), wk =   0.0138889
        k(   83) = (   0.4166667  -0.5000000  -0.5000000), wk =   0.0069444
        k(   84) = (  -0.5000000  -0.5000000  -0.5000000), wk =   0.0011574

                       cryst. coord.
        k(    1) = (   0.0000000   0.0000000   0.0000000), wk =   0.0011574
        k(    2) = (   0.0000000   0.0000000   0.0833333), wk =   0.0069444
        k(    3) = (   0.0000000   0.0000000   0.1666667), wk =   0.0069444
        k(    4) = (   0.0000000   0.0000000   0.2500000), wk =   0.0069444
        k(    5) = (   0.0000000   0.0000000   0.3333333), wk =   0.0069444
        k(    6) = (   0.0000000   0.0000000   0.4166667), wk =   0.0069444
        k(    7) = (   0.0000000   0.0000000  -0.5000000), wk =   0.0034722
        k(    8) = (   0.0000000   0.0833333   0.0833333), wk =   0.0138889
        k(    9) = (   0.0000000   0.0833333   0.1666667), wk =   0.0277778
        k(   10) = (   0.0000000   0.0833333   0.2500000), wk =   0.0277778
        k(   11) = (   0.0000000   0.0833333   0.3333333), wk =   0.0277778
        k(   12) = (   0.0000000   0.0833333   0.4166667), wk =   0.0277778
        k(   13) = (   0.0000000   0.0833333  -0.5000000), wk =   0.0138889
        k(   14) = (   0.0000000   0.1666667   0.1666667), wk =   0.0138889
        k(   15) = (   0.0000000   0.1666667   0.2500000), wk =   0.0277778
        k(   16) = (   0.0000000   0.1666667   0.3333333), wk =   0.0277778
        k(   17) = (   0.0000000   0.1666667   0.4166667), wk =   0.0277778
        k(   18) = (   0.0000000   0.1666667  -0.5000000), wk =   0.0138889
        k(   19) = (   0.0000000   0.2500000   0.2500000), wk =   0.0138889
        k(   20) = (   0.0000000   0.2500000   0.3333333), wk =   0.0277778
        k(   21) = (   0.0000000   0.2500000   0.4166667), wk =   0.0277778
        k(   22) = (   0.0000000   0.2500000  -0.5000000), wk =   0.0138889
        k(   23) = (   0.0000000   0.3333333   0.3333333), wk =   0.0138889
        k(   24) = (   0.0000000   0.3333333   0.4166667), wk =   0.0277778
        k(   25) = (   0.0000000   0.3333333  -0.5000000), wk =   0.0138889
        k(   26) = (   0.0000000   0.4166667   0.4166667), wk =   0.0138889
        k(   27) = (   0.0000000   0.4166667  -0.5000000), wk =   0.0138889
        k(   28) = (   0.0000000  -0.5000000  -0.5000000), wk =   0.0034722
        k(   29) = (   0.0833333   0.0833333   0.0833333), wk =   0.0092593
        k(   30) = (   0.0833333   0.0833333   0.1666667), wk =   0.0277778
        k(   31) = (   0.0833333   0.0833333   0.2500000), wk =   0.0277778
        k(   32) = (   0.0833333   0.0833333   0.3333333), wk =   0.0277778
        k(   33) = (   0.0833333   0.0833333   0.4166667), wk =   0.0277778
        k(   34) = (   0.0833333   0.0833333  -0.5000000), wk =   0.0138889
        k(   35) = (   0.0833333   0.1666667   0.1666667), wk =   0.0277778
        k(   36) = (   0.0833333   0.1666667   0.2500000), wk =   0.0555556
        k(   37) = (   0.0833333   0.1666667   0.3333333), wk =   0.0555556
        k(   38) = (   0.0833333   0.1666667   0.4166667), wk =   0.0555556
        k(   39) = (   0.0833333   0.1666667  -0.5000000), wk =   0.0277778
        k(   40) = (   0.0833333   0.2500000   0.2500000), wk =   0.0277778
        k(   41) = (   0.0833333   0.2500000   0.3333333), wk =   0.0555556
        k(   42) = (   0.0833333   0.2500000   0.4166667), wk =   0.0555556
        k(   43) = (   0.0833333   0.2500000  -0.5000000), wk =   0.0277778
        k(   44) = (   0.0833333   0.3333333   0.3333333), wk =   0.0277778
        k(   45) = (   0.0833333   0.3333333   0.4166667), wk =   0.0555556
        k(   46) = (   0.0833333   0.3333333  -0.5000000), wk =   0.0277778
        k(   47) = (   0.0833333   0.4166667   0.4166667), wk =   0.0277778
        k(   48) = (   0.0833333   0.4166667  -0.5000000), wk =   0.0277778
        k(   49) = (   0.0833333  -0.5000000  -0.5000000), wk =   0.0069444
        k(   50) = (   0.1666667   0.1666667   0.1666667), wk =   0.0092593
        k(   51) = (   0.1666667   0.1666667   0.2500000), wk =   0.0277778
        k(   52) = (   0.1666667   0.1666667   0.3333333), wk =   0.0277778
        k(   53) = (   0.1666667   0.1666667   0.4166667), wk =   0.0277778
        k(   54) = (   0.1666667   0.1666667  -0.5000000), wk =   0.0138889
        k(   55) = (   0.1666667   0.2500000   0.2500000), wk =   0.0277778
        k(   56) = (   0.1666667   0.2500000   0.3333333), wk =   0.0555556
        k(   57) = (   0.1666667   0.2500000   0.4166667), wk =   0.0555556
        k(   58) = (   0.1666667   0.2500000  -0.5000000), wk =   0.0277778
        k(   59) = (   0.1666667   0.3333333   0.3333333), wk =   0.0277778
        k(   60) = (   0.1666667   0.3333333   0.4166667), wk =   0.0555556
        k(   61) = (   0.1666667   0.3333333  -0.5000000), wk =   0.0277778
        k(   62) = (   0.1666667   0.4166667   0.4166667), wk =   0.0277778
        k(   63) = (   0.1666667   0.4166667  -0.5000000), wk =   0.0277778
        k(   64) = (   0.1666667  -0.5000000  -0.5000000), wk =   0.0069444
        k(   65) = (   0.2500000   0.2500000   0.2500000), wk =   0.0092593
        k(   66) = (   0.2500000   0.2500000   0.3333333), wk =   0.0277778
        k(   67) = (   0.2500000   0.2500000   0.4166667), wk =   0.0277778
        k(   68) = (   0.2500000   0.2500000  -0.5000000), wk =   0.0138889
        k(   69) = (   0.2500000   0.3333333   0.3333333), wk =   0.0277778
        k(   70) = (   0.2500000   0.3333333   0.4166667), wk =   0.0555556
        k(   71) = (   0.2500000   0.3333333  -0.5000000), wk =   0.0277778
        k(   72) = (   0.2500000   0.4166667   0.4166667), wk =   0.0277778
        k(   73) = (   0.2500000   0.4166667  -0.5000000), wk =   0.0277778
        k(   74) = (   0.2500000  -0.5000000  -0.5000000), wk =   0.0069444
        k(   75) = (   0.3333333   0.3333333   0.3333333), wk =   0.0092593
        k(   76) = (   0.3333333   0.3333333   0.4166667), wk =   0.0277778
        k(   77) = (   0.3333333   0.3333333  -0.5000000), wk =   0.0138889
        k(   78) = (   0.3333333   0.4166667   0.4166667), wk =   0.0277778
        k(   79) = (   0.3333333   0.4166667  -0.5000000), wk =   0.0277778
        k(   80) = (   0.3333333  -0.5000000  -0.5000000), wk =   0.0069444
        k(   81) = (   0.4166667   0.4166667   0.4166667), wk =   0.0092593
        k(   82) = (   0.4166667   0.4166667  -0.5000000), wk =   0.0138889
        k(   83) = (   0.4166667  -0.5000000  -0.5000000), wk =   0.0069444
        k(   84) = (  -0.5000000  -0.5000000  -0.5000000), wk =   0.0011574

     Dense  grid:    27081 G-vectors     FFT dimensions: (  40,  40,  40)

     Smooth grid:     9627 G-vectors     FFT dimensions: (  27,  27,  27)

     Dynamical RAM for                 wfc:       0.31 MB

     Dynamical RAM for     wfc (w. buffer):      26.35 MB

     Dynamical RAM for           str. fact:       0.83 MB

     Dynamical RAM for           local pot:       0.00 MB

     Dynamical RAM for          nlocal pot:       0.47 MB

     Dynamical RAM for                qrad:       3.21 MB

     Dynamical RAM for          rho,v,vnew:       2.70 MB

     Dynamical RAM for               rhoin:       0.90 MB

     Dynamical RAM for            rho*nmix:       6.61 MB

     Dynamical RAM for           G-vectors:       1.62 MB

     Dynamical RAM for          h,s,v(r/c):       0.05 MB

     Dynamical RAM for          <psi|beta>:       0.01 MB

     Dynamical RAM for                 psi:       0.62 MB

     Dynamical RAM for                hpsi:       0.62 MB

     Dynamical RAM for                spsi:       0.62 MB

     Dynamical RAM for      wfcinit/wfcrot:       0.63 MB

     Dynamical RAM for           addusdens:      77.27 MB

     Dynamical RAM for          addusforce:      77.48 MB

     Dynamical RAM for         addusstress:      83.06 MB

     Estimated static dynamical RAM per process >      39.77 MB

     Estimated max dynamical RAM per process >     129.44 MB

     Check: negative core charge=   -0.000002

     Initial potential from superposition of free atoms

     starting charge      25.9999, renormalised to      26.0000
     Starting wfcs are   17 randomized atomic wfcs
     Checking if some PAW data can be deallocated... 

     total cpu time spent up to now is       12.0 secs

     Self-consistent Calculation

     iteration #  1     ecut=    50.00 Ry     beta= 0.40
     Davidson diagonalization with overlap

---- Real-time Memory Report at c_bands before calling an iterative solver
           123 MiB given to the printing process from OS
             0 MiB allocation reported by mallinfo(arena+hblkhd)
          4341 MiB available memory on the node where the printing process lives
------------------
     ethr =  1.00E-02,  avg # of iterations =  2.3

     total cpu time spent up to now is       38.6 secs

     WARNING: integrated charge=    26.00042692, expected=    26.00000000

     total energy              =    -502.84919354 Ry
     estimated scf accuracy    <       0.70460752 Ry

     iteration #  2     ecut=    50.00 Ry     beta= 0.40
     Davidson diagonalization with overlap

---- Real-time Memory Report at c_bands before calling an iterative solver
           170 MiB given to the printing process from OS
             0 MiB allocation reported by mallinfo(arena+hblkhd)
          4275 MiB available memory on the node where the printing process lives
------------------
     ethr =  2.71E-03,  avg # of iterations =  2.0

     total cpu time spent up to now is       49.5 secs

     WARNING: integrated charge=    26.00032992, expected=    26.00000000

     total energy              =    -503.01978097 Ry
     estimated scf accuracy    <       0.41691378 Ry

     iteration #  3     ecut=    50.00 Ry     beta= 0.40
     Davidson diagonalization with overlap

---- Real-time Memory Report at c_bands before calling an iterative solver
           171 MiB given to the printing process from OS
             0 MiB allocation reported by mallinfo(arena+hblkhd)
          4274 MiB available memory on the node where the printing process lives
------------------
     ethr =  1.60E-03,  avg # of iterations =  2.0

     total cpu time spent up to now is       68.6 secs

     WARNING: integrated charge=    26.00001465, expected=    26.00000000

     total energy              =    -503.08854180 Ry
     estimated scf accuracy    <       0.01154850 Ry

     iteration #  4     ecut=    50.00 Ry     beta= 0.40
     Davidson diagonalization with overlap

---- Real-time Memory Report at c_bands before calling an iterative solver
           171 MiB given to the printing process from OS
             0 MiB allocation reported by mallinfo(arena+hblkhd)
          4273 MiB available memory on the node where the printing process lives
------------------
     ethr =  4.44E-05,  avg # of iterations =  2.2

     total cpu time spent up to now is       83.4 secs

     WARNING: integrated charge=    26.00002659, expected=    26.00000000

     total energy              =    -503.09026428 Ry
     estimated scf accuracy    <       0.00111559 Ry

     iteration #  5     ecut=    50.00 Ry     beta= 0.40
     Davidson diagonalization with overlap

---- Real-time Memory Report at c_bands before calling an iterative solver
           171 MiB given to the printing process from OS
             0 MiB allocation reported by mallinfo(arena+hblkhd)
          4268 MiB available memory on the node where the printing process lives
------------------
     ethr =  4.29E-06,  avg # of iterations =  1.5

     total cpu time spent up to now is      105.2 secs

     WARNING: integrated charge=    26.00002254, expected=    26.00000000

     total energy              =    -503.09038042 Ry
     estimated scf accuracy    <       0.00003971 Ry

     iteration #  6     ecut=    50.00 Ry     beta= 0.40
     Davidson diagonalization with overlap

---- Real-time Memory Report at c_bands before calling an iterative solver
           172 MiB given to the printing process from OS
             0 MiB allocation reported by mallinfo(arena+hblkhd)
          4269 MiB available memory on the node where the printing process lives
------------------
     ethr =  1.53E-07,  avg # of iterations =  2.1

     total cpu time spent up to now is      130.9 secs

     WARNING: integrated charge=    25.99999578, expected=    26.00000000

     total energy              =    -503.09038084 Ry
     estimated scf accuracy    <       0.00004567 Ry

     iteration #  7     ecut=    50.00 Ry     beta= 0.40
     Davidson diagonalization with overlap

---- Real-time Memory Report at c_bands before calling an iterative solver
           172 MiB given to the printing process from OS
             0 MiB allocation reported by mallinfo(arena+hblkhd)
          4306 MiB available memory on the node where the printing process lives
------------------
     ethr =  1.53E-07,  avg # of iterations =  2.0
     Minimization algorithm failed to find Fermi energy: reverting to bisection
     Possible cause: smearing is larger than the electronic band-gap.

     total cpu time spent up to now is      140.4 secs

     total energy              =    -503.09038739 Ry
     estimated scf accuracy    <       0.00000434 Ry

     iteration #  8     ecut=    50.00 Ry     beta= 0.40
     Davidson diagonalization with overlap

---- Real-time Memory Report at c_bands before calling an iterative solver
           172 MiB given to the printing process from OS
             0 MiB allocation reported by mallinfo(arena+hblkhd)
          4305 MiB available memory on the node where the printing process lives
------------------
     ethr =  1.67E-08,  avg # of iterations =  1.1
     Minimization algorithm failed to find Fermi energy: reverting to bisection
     Possible cause: smearing is larger than the electronic band-gap.

     total cpu time spent up to now is      160.8 secs

     total energy              =    -503.09038739 Ry
     estimated scf accuracy    <       0.00000065 Ry

     iteration #  9     ecut=    50.00 Ry     beta= 0.40
     Davidson diagonalization with overlap

---- Real-time Memory Report at c_bands before calling an iterative solver
           173 MiB given to the printing process from OS
             0 MiB allocation reported by mallinfo(arena+hblkhd)
          4306 MiB available memory on the node where the printing process lives
------------------
     ethr =  2.48E-09,  avg # of iterations =  2.1

     total cpu time spent up to now is      178.2 secs

     total energy              =    -503.09038748 Ry
     estimated scf accuracy    <       0.00000004 Ry

     iteration # 10     ecut=    50.00 Ry     beta= 0.40
     Davidson diagonalization with overlap

---- Real-time Memory Report at c_bands before calling an iterative solver
           173 MiB given to the printing process from OS
             0 MiB allocation reported by mallinfo(arena+hblkhd)
          4303 MiB available memory on the node where the printing process lives
------------------
     ethr =  1.73E-10,  avg # of iterations =  2.0

     total cpu time spent up to now is      197.7 secs

     End of self-consistent calculation

          k = 0.0000 0.0000 0.0000 (  1213 PWs)   bands (ev):

  -118.8299 -73.0115 -73.0115 -73.0115  -9.9818  -0.0158  -0.0158   0.4159
     0.4159   0.4159   3.8916   5.5899   5.5899   5.5899  18.2453  18.6025
    18.6026

     occupation numbers 
     1.0000   1.0000   1.0000   1.0000   1.0000   1.0000   1.0000   1.0000
     1.0000   1.0000   1.0000   1.0008   1.0008   1.0008   0.0000   0.0000
     0.0000

          k = 0.0000 0.0000 0.0833 (  1205 PWs)   bands (ev):

  -118.8298 -73.0117 -73.0115 -73.0115  -9.9546  -0.0130  -0.0017   0.4033
     0.4033   0.4167   3.6392   5.6238   5.6238   5.8389  16.8037  18.5820
    18.5826

     occupation numbers 
     1.0000   1.0000   1.0000   1.0000   1.0000   1.0000   1.0000   1.0000
     1.0000   1.0000   1.0000   1.0017   1.0017   1.0503   0.0000   0.0000
     0.0000

          k = 0.0000 0.0000 0.1667 (  1193 PWs)   bands (ev):

  -118.8298 -73.0120 -73.0114 -73.0114  -9.8791  -0.0055   0.0299   0.3697
     0.3697   0.4190   3.1312   5.7169   5.7169   6.3720  15.2053  18.5211
    18.5212

     occupation numbers 
     1.0000   1.0000   1.0000   1.0000   1.0000   1.0000   1.0000   1.0000
     1.0000   1.0000   1.0000   1.0101   1.0101   0.0643   0.0000   0.0000
     0.0000

          k = 0.0000 0.0000 0.2500 (  1213 PWs)   bands (ev):

  -118.8298 -73.0126 -73.0115 -73.0115  -9.7725   0.0047   0.0502   0.3246
     0.3246   0.4220   2.6279   5.8455   5.8455   7.0210  13.6511  18.4197
    18.4198

     occupation numbers 
     1.0000   1.0000   1.0000   1.0000   1.0000   1.0000   1.0000   1.0000
     1.0000   1.0000   1.0000   1.0534   1.0534   0.0000   0.0000   0.0000
     0.0000

          k = 0.0000 0.0000 0.3333 (  1201 PWs)   bands (ev):

  -118.8298 -73.0131 -73.0114 -73.0114  -9.6614   0.0149   0.0323   0.2809
     0.2809   0.4250   2.2515   5.9759   5.9759   7.7708  12.1882  18.2979
    18.2979

     occupation numbers 
     1.0000   1.0000   1.0000   1.0000   1.0000   1.0000   1.0000   1.0000
     1.0000   1.0000   1.0000   1.0720   1.0720   0.0000   0.0000   0.0000
     0.0000

          k = 0.0000 0.0000 0.4167 (  1198 PWs)   bands (ev):

  -118.8298 -73.0135 -73.0114 -73.0114  -9.5769  -0.0142   0.0224   0.2497
     0.2497   0.4273   2.0421   6.0727   6.0727   8.6458  10.8537  18.1958
    18.1958

     occupation numbers 
     1.0000   1.0000   1.0000   1.0000   1.0000   1.0000   1.0000   1.0000
     1.0000   1.0000   1.0000   0.9124   0.9124   0.0000   0.0000   0.0000
     0.0000

          k = 0.0000 0.0000-0.5000 (  1222 PWs)   bands (ev):

  -118.8298 -73.0138 -73.0115 -73.0115  -9.5453  -0.0396   0.0251   0.2383
     0.2383   0.4280   1.9788   6.1085   6.1085   9.6445   9.6962  18.1556
    18.1556

     occupation numbers 
     1.0000   1.0000   1.0000   1.0000   1.0000   1.0000   1.0000   1.0000
     1.0000   1.0000   1.0000   0.8030   0.8030   0.0000   0.0000   0.0000
     0.0000

          k = 0.0000 0.0833 0.0833 (  1203 PWs)   bands (ev):

  -118.8298 -73.0116 -73.0116 -73.0115  -9.9281  -0.0050   0.0082   0.3911
     0.4000   0.4090   3.4836   5.4490   5.6557   6.1969  16.6690  17.0997
    18.5720

     occupation numbers 
     1.0000   1.0000   1.0000   1.0000   1.0000   1.0000   1.0000   1.0000
     1.0000   1.0000   1.0000   1.0000   1.0032   0.4789   0.0000   0.0000
     0.0000

          k = 0.0000 0.0833 0.1667 (  1208 PWs)   bands (ev):

  -118.8298 -73.0120 -73.0116 -73.0114  -9.8541   0.0043   0.0411   0.3584
     0.3700   0.4092   3.0979   5.4085   5.7436   6.7321  15.2500  17.0129
    18.5359

     occupation numbers 
     1.0000   1.0000   1.0000   1.0000   1.0000   1.0000   1.0000   1.0000
     1.0000   1.0000   1.0000   1.0000   1.0154   0.0000   0.0000   0.0000
     0.0000

          k = 0.0000 0.0833 0.2500 (  1201 PWs)   bands (ev):

  -118.8298 -73.0126 -73.0116 -73.0114  -9.7497   0.0144   0.0670   0.3165
     0.3268   0.4127   2.6562   5.5080   5.8647   7.3295  13.6966  17.1303
    18.4697

     occupation numbers 
     1.0000   1.0000   1.0000   1.0000   1.0000   1.0000   1.0000   1.0000
     1.0000   1.0000   1.0000   1.0001   1.0624   0.0000   0.0000   0.0000
     0.0000

          k = 0.0000 0.0833 0.3333 (  1201 PWs)   bands (ev):

  -118.8298 -73.0131 -73.0115 -73.0114  -9.6410   0.0223   0.0597   0.2771
     0.2845   0.4164   2.3013   5.6589   5.9875   8.0054  12.2399  17.2418
    18.3828

     occupation numbers 
     1.0000   1.0000   1.0000   1.0000   1.0000   1.0000   1.0000   1.0000
     1.0000   1.0000   1.0000   1.0035   1.0636   0.0000   0.0000   0.0000
     0.0000

          k = 0.0000 0.0833 0.4167 (  1194 PWs)   bands (ev):

  -118.8297 -73.0134 -73.0115 -73.0114  -9.5584   0.0100   0.0432   0.2481
     0.2542   0.4192   2.0950   5.7858   6.0786   8.7996  10.9322  17.3115
    18.3057

     occupation numbers 
     1.0000   1.0000   1.0000   1.0000   1.0000   1.0000   1.0000   1.0000
     1.0000   1.0000   1.0000   1.0280   0.8960   0.0000   0.0000   0.0000
     0.0000

          k = 0.0000 0.0833-0.5000 (  1196 PWs)   bands (ev):

  -118.8297 -73.0136 -73.0115 -73.0114  -9.5275  -0.0074   0.0429   0.2371
     0.2433   0.4202   2.0311   5.8348   6.1123   9.6061   9.9463  17.3337
    18.2745

     occupation numbers 
     1.0000   1.0000   1.0000   1.0000   1.0000   1.0000   1.0000   1.0000
     1.0000   1.0000   1.0000   1.0484   0.7903   0.0000   0.0000   0.0000
     0.0000

          k = 0.0000 0.1667 0.1667 (  1203 PWs)   bands (ev):

  -118.8298 -73.0120 -73.0120 -73.0114  -9.7844   0.0177   0.0794   0.3298
     0.3638   0.3902   2.9671   5.0663   5.8168   7.2822  15.3715  15.3780
    18.5717

     occupation numbers 
     1.0000   1.0000   1.0000   1.0000   1.0000   1.0000   1.0000   1.0000
     1.0000   1.0000   1.0000   1.0000   1.0403   0.0000   0.0000   0.0000
     0.0000

          k = 0.0000 0.1667 0.2500 (  1201 PWs)   bands (ev):

  -118.8298 -73.0125 -73.0120 -73.0114  -9.6863   0.0273   0.1224   0.2960
     0.3317   0.3885   2.7199   4.9548   5.9176   7.8317  13.8050  15.5509
    18.6077

     occupation numbers 
     1.0000   1.0000   1.0000   1.0000   1.0000   1.0000   1.0000   1.0000
     1.0000   1.0000   1.0000   1.0000   1.0814   0.0000   0.0000   0.0000
     0.0000

          k = 0.0000 0.1667 0.3333 (  1199 PWs)   bands (ev):

  -118.8297 -73.0131 -73.0119 -73.0114  -9.5844   0.0333   0.1404   0.2680
     0.2942   0.3932   2.4472   5.0329   6.0195   8.3830  12.3931  15.7408
    18.6262

     occupation numbers 
     1.0000   1.0000   1.0000   1.0000   1.0000   1.0000   1.0000   1.0000
     1.0000   1.0000   1.0000   1.0000   1.0261   0.0000   0.0000   0.0000
     0.0000

          k = 0.0000 0.1667 0.4167 (  1194 PWs)   bands (ev):

  -118.8297 -73.0134 -73.0119 -73.0113  -9.5073   0.0344   0.1377   0.2455
     0.2667   0.3972   2.2588   5.1634   6.0949   8.9517  11.2362  15.8922
    18.6268

     occupation numbers 
     1.0000   1.0000   1.0000   1.0000   1.0000   1.0000   1.0000   1.0000
     1.0000   1.0000   1.0000   1.0000   0.8473   0.0000   0.0000   0.0000
     0.0000

          k = 0.0000 0.1667-0.5000 (  1198 PWs)   bands (ev):

  -118.8297 -73.0136 -73.0119 -73.0114  -9.4785   0.0336   0.1344   0.2351
     0.2567   0.3986   2.1951   5.2237   6.1226   9.3239  10.6527  15.9511
    18.6241

     occupation numbers 
     1.0000   1.0000   1.0000   1.0000   1.0000   1.0000   1.0000   1.0000
     1.0000   1.0000   1.0000   1.0000   0.7542   0.0000   0.0000   0.0000
     0.0000

          k = 0.0000 0.2500 0.2500 (  1193 PWs)   bands (ev):

  -118.8297 -73.0125 -73.0125 -73.0113  -9.5973   0.0377   0.1934   0.2726
     0.3302   0.3643   2.7473   4.5455   5.9901   8.2701  13.6300  14.4483
    18.7989

     occupation numbers 
     1.0000   1.0000   1.0000   1.0000   1.0000   1.0000   1.0000   1.0000
     1.0000   1.0000   1.0000   1.0000   1.0613   0.0000   0.0000   0.0000
     0.0000

          k = 0.0000 0.2500 0.3333 (  1190 PWs)   bands (ev):

  -118.8297 -73.0130 -73.0124 -73.0113  -9.5053   0.0481   0.2383   0.2624
     0.3068   0.3626   2.6654   4.4232   6.0633   8.5895  12.6099  14.4866
    18.9910

     occupation numbers 
     1.0000   1.0000   1.0000   1.0000   1.0000   1.0000   1.0000   1.0000
     1.0000   1.0000   1.0000   1.0000   0.9372   0.0000   0.0000   0.0000
     0.0000

          k = 0.0000 0.2500 0.4167 (  1196 PWs)   bands (ev):

  -118.8297 -73.0134 -73.0124 -73.0113  -9.4359   0.0585   0.2375   0.2737
     0.2838   0.3674   2.5385   4.4971   6.1172   8.7756  11.8011  14.6778
    19.1301

     occupation numbers 
     1.0000   1.0000   1.0000   1.0000   1.0000   1.0000   1.0000   1.0000
     1.0000   1.0000   1.0000   1.0000   0.7732   0.0000   0.0000   0.0000
     0.0000

          k = 0.0000 0.2500-0.5000 (  1200 PWs)   bands (ev):

  -118.8297 -73.0136 -73.0125 -73.0113  -9.4100   0.0637   0.2359   0.2744
     0.2751   0.3695   2.4830   4.5550   6.1370   8.8342  11.5073  14.7616
    19.1803

     occupation numbers 
     1.0000   1.0000   1.0000   1.0000   1.0000   1.0000   1.0000   1.0000
     1.0000   1.0000   1.0000   1.0000   0.7022   0.0000   0.0000   0.0000
     0.0000

          k = 0.0000 0.3333 0.3333 (  1197 PWs)   bands (ev):

  -118.8297 -73.0130 -73.0130 -73.0113  -9.4238   0.0659   0.2477   0.3133
     0.3339   0.3382   2.8659   4.0194   6.1073   8.5322  12.6821  13.8305
    19.4046

     occupation numbers 
     1.0000   1.0000   1.0000   1.0000   1.0000   1.0000   1.0000   1.0000
     1.0000   1.0000   1.0000   1.0000   0.8068   0.0000   0.0000   0.0000
     0.0000

          k = 0.0000 0.3333 0.4167 (  1190 PWs)   bands (ev):

  -118.8297 -73.0134 -73.0129 -73.0112  -9.3625   0.0830   0.2436   0.3007
     0.3381   0.3865   2.9063   3.9428   6.1398   8.3116  12.4712  13.8522
    19.7498

     occupation numbers 
     1.0000   1.0000   1.0000   1.0000   1.0000   1.0000   1.0000   1.0000
     1.0000   1.0000   1.0000   1.0000   0.6922   0.0000   0.0000   0.0000
     0.0000

          k = 0.0000 0.3333-0.5000 (  1184 PWs)   bands (ev):

  -118.8297 -73.0135 -73.0129 -73.0112  -9.3397   0.0908   0.2420   0.2935
     0.3407   0.4028   2.8789   3.9852   6.1517   8.1867  12.3621  13.9439
    19.8872

     occupation numbers 
     1.0000   1.0000   1.0000   1.0000   1.0000   1.0000   1.0000   1.0000
     1.0000   1.0000   1.0000   1.0000   0.6478   0.0000   0.0000   0.0000
     0.0000

          k = 0.0000 0.4167 0.4167 (  1194 PWs)   bands (ev):

  -118.8297 -73.0134 -73.0134 -73.0112  -9.3075   0.1024   0.2484   0.3109
     0.3191   0.4619   3.2272   3.6220   6.1565   7.8007  12.9812  13.4721
    19.1049

     occupation numbers 
     1.0000   1.0000   1.0000   1.0000   1.0000   1.0000   1.0000   1.0000
     1.0000   1.0000   1.0000   1.0000   0.6300   0.0000   0.0000   0.0000
     0.0000

          k = 0.0000 0.4167-0.5000 (  1196 PWs)   bands (ev):

  -118.8297 -73.0135 -73.0134 -73.0113  -9.2871   0.1099   0.2508   0.3070
     0.3196   0.4874   3.2830   3.6051   6.1626   7.5693  13.0622  13.4944
    18.7855

     occupation numbers 
     1.0000   1.0000   1.0000   1.0000   1.0000   1.0000   1.0000   1.0000
     1.0000   1.0000   1.0000   1.0000   0.6069   0.0000   0.0000   0.0000
     0.0000

          k = 0.0000-0.5000-0.5000 (  1180 PWs)   bands (ev):

  -118.8296 -73.0134 -73.0134 -73.0112  -9.2676   0.1169   0.2553   0.3121
     0.3121   0.5164   3.4715   3.4715   6.1666   7.2973  13.3541  13.3541
    18.4381

     occupation numbers 
     1.0000   1.0000   1.0000   1.0000   1.0000   1.0000   1.0000   1.0000
     1.0000   1.0000   1.0000   1.0000   0.5917   0.0000   0.0000   0.0000
     0.0000

          k = 0.0833 0.0833 0.0833 (  1207 PWs)   bands (ev):

  -118.8298 -73.0116 -73.0116 -73.0116  -9.9020   0.0110   0.0110   0.3858
     0.3958   0.3958   3.3732   5.4860   5.4860   6.4949  16.6931  16.6931
    17.7633

     occupation numbers 
     1.0000   1.0000   1.0000   1.0000   1.0000   1.0000   1.0000   1.0000
     1.0000   1.0000   1.0000   1.0000   1.0000   0.0067   0.0000   0.0000
     0.0000

          k = 0.0833 0.0833 0.1667 (  1206 PWs)   bands (ev):

  -118.8298 -73.0120 -73.0116 -73.0116  -9.8294   0.0188   0.0481   0.3593
     0.3603   0.3980   3.0694   5.3637   5.5876   7.0011  15.2913  16.7553
    17.6678

     occupation numbers 
     1.0000   1.0000   1.0000   1.0000   1.0000   1.0000   1.0000   1.0000
     1.0000   1.0000   1.0000   1.0000   1.0007   0.0000   0.0000   0.0000
     0.0000

          k = 0.0833 0.0833 0.2500 (  1200 PWs)   bands (ev):

  -118.8298 -73.0125 -73.0116 -73.0116  -9.7271   0.0296   0.0781   0.3129
     0.3250   0.4024   2.6828   5.4032   5.7284   7.5581  13.7493  16.8287
    17.7997

     occupation numbers 
     1.0000   1.0000   1.0000   1.0000   1.0000   1.0000   1.0000   1.0000
     1.0000   1.0000   1.0000   1.0000   1.0122   0.0000   0.0000   0.0000
     0.0000

          k = 0.0833 0.0833 0.3333 (  1198 PWs)   bands (ev):

  -118.8298 -73.0131 -73.0115 -73.0115  -9.6207   0.0409   0.0748   0.2665
     0.2938   0.4069   2.3511   5.5279   5.8718   8.1773  12.3044  16.8826
    17.9450

     occupation numbers 
     1.0000   1.0000   1.0000   1.0000   1.0000   1.0000   1.0000   1.0000
     1.0000   1.0000   1.0000   1.0002   1.0656   0.0000   0.0000   0.0000
     0.0000

          k = 0.0833 0.0833 0.4167 (  1191 PWs)   bands (ev):

  -118.8297 -73.0134 -73.0115 -73.0115  -9.5400   0.0461   0.0497   0.2328
     0.2705   0.4104   2.1506   5.6485   5.9787   8.8972  11.0332  16.9051
    18.0474

     occupation numbers 
     1.0000   1.0000   1.0000   1.0000   1.0000   1.0000   1.0000   1.0000
     1.0000   1.0000   1.0000   1.0028   1.0702   0.0000   0.0000   0.0000
     0.0000

          k = 0.0833 0.0833-0.5000 (  1192 PWs)   bands (ev):

  -118.8297 -73.0136 -73.0115 -73.0115  -9.5098   0.0293   0.0530   0.2205
     0.2612   0.4116   2.0870   5.6973   6.0183   9.5301  10.2061  16.9090
    18.0835

     occupation numbers 
     1.0000   1.0000   1.0000   1.0000   1.0000   1.0000   1.0000   1.0000
     1.0000   1.0000   1.0000   1.0072   1.0279   0.0000   0.0000   0.0000
     0.0000

          k = 0.0833 0.1667 0.1667 (  1207 PWs)   bands (ev):

  -118.8298 -73.0120 -73.0120 -73.0116  -9.7610   0.0383   0.0820   0.3322
     0.3575   0.3753   2.9584   5.1120   5.6077   7.4794  15.3607  15.4580
    17.5151

     occupation numbers 
     1.0000   1.0000   1.0000   1.0000   1.0000   1.0000   1.0000   1.0000
     1.0000   1.0000   1.0000   1.0000   1.0012   0.0000   0.0000   0.0000
     0.0000

          k = 0.0833 0.1667 0.2500 (  1200 PWs)   bands (ev):

  -118.8298 -73.0125 -73.0120 -73.0115  -9.6646   0.0500   0.1257   0.2935
     0.3299   0.3758   2.7434   4.9819   5.7282   7.9725  13.8785  15.5355
    17.7009

     occupation numbers 
     1.0000   1.0000   1.0000   1.0000   1.0000   1.0000   1.0000   1.0000
     1.0000   1.0000   1.0000   1.0000   1.0121   0.0000   0.0000   0.0000
     0.0000

          k = 0.0833 0.1667 0.3333 (  1198 PWs)   bands (ev):

  -118.8297 -73.0131 -73.0119 -73.0115  -9.5647   0.0589   0.1452   0.2521
     0.3056   0.3818   2.4967   5.0291   5.8582   8.4687  12.4850  15.6485
    17.9414

     occupation numbers 
     1.0000   1.0000   1.0000   1.0000   1.0000   1.0000   1.0000   1.0000
     1.0000   1.0000   1.0000   1.0000   1.0594   0.0000   0.0000   0.0000
     0.0000

          k = 0.0833 0.1667 0.4167 (  1189 PWs)   bands (ev):

  -118.8297 -73.0134 -73.0118 -73.0114  -9.4890   0.0640   0.1437   0.2188
     0.2880   0.3870   2.3209   5.1381   5.9563   8.9750  11.3637  15.7171
    18.1460

     occupation numbers 
     1.0000   1.0000   1.0000   1.0000   1.0000   1.0000   1.0000   1.0000
     1.0000   1.0000   1.0000   1.0000   1.0806   0.0000   0.0000   0.0000
     0.0000

          k = 0.0833 0.1667-0.5000 (  1188 PWs)   bands (ev):

  -118.8297 -73.0135 -73.0118 -73.0114  -9.4608   0.0652   0.1409   0.2056
     0.2802   0.3890   2.2605   5.1909   5.9927   9.2863  10.8316  15.7386
    18.2287

     occupation numbers 
     1.0000   1.0000   1.0000   1.0000   1.0000   1.0000   1.0000   1.0000
     1.0000   1.0000   1.0000   1.0000   1.0590   0.0000   0.0000   0.0000
     0.0000

          k = 0.0833 0.2500 0.2500 (  1203 PWs)   bands (ev):

  -118.8297 -73.0126 -73.0125 -73.0115  -9.5769   0.0622   0.1933   0.2666
     0.3337   0.3484   2.7759   4.6043   5.8154   8.3478  13.7666  14.3955
    17.9203

     occupation numbers 
     1.0000   1.0000   1.0000   1.0000   1.0000   1.0000   1.0000   1.0000
     1.0000   1.0000   1.0000   1.0000   1.0397   0.0000   0.0000   0.0000
     0.0000

          k = 0.0833 0.2500 0.3333 (  1194 PWs)   bands (ev):

  -118.8297 -73.0130 -73.0124 -73.0114  -9.4862   0.0732   0.2339   0.2453
     0.3168   0.3512   2.7145   4.4733   5.9128   8.6256  12.7175  14.4191
    18.2218

     occupation numbers 
     1.0000   1.0000   1.0000   1.0000   1.0000   1.0000   1.0000   1.0000
     1.0000   1.0000   1.0000   1.0000   1.0804   0.0000   0.0000   0.0000
     0.0000

          k = 0.0833 0.2500 0.4167 (  1192 PWs)   bands (ev):

  -118.8297 -73.0134 -73.0124 -73.0114  -9.4178   0.0850   0.2113   0.2604
     0.3034   0.3601   2.6082   4.5280   5.9868   8.7922  11.8975  14.5507
    18.5077

     occupation numbers 
     1.0000   1.0000   1.0000   1.0000   1.0000   1.0000   1.0000   1.0000
     1.0000   1.0000   1.0000   1.0000   1.0642   0.0000   0.0000   0.0000
     0.0000

          k = 0.0833 0.2500-0.5000 (  1196 PWs)   bands (ev):

  -118.8297 -73.0135 -73.0124 -73.0115  -9.3924   0.0915   0.1996   0.2676
     0.2938   0.3643   2.5602   4.5776   6.0143   8.8469  11.5994  14.6019
    18.6365

     occupation numbers 
     1.0000   1.0000   1.0000   1.0000   1.0000   1.0000   1.0000   1.0000
     1.0000   1.0000   1.0000   1.0000   1.0336   0.0000   0.0000   0.0000
     0.0000

          k = 0.0833 0.3333 0.3333 (  1192 PWs)   bands (ev):

  -118.8297 -73.0130 -73.0129 -73.0114  -9.4054   0.0897   0.2269   0.2962
     0.3206   0.3545   2.9203   4.0929   5.9762   8.5623  12.7633  13.7377
    18.5978

     occupation numbers 
     1.0000   1.0000   1.0000   1.0000   1.0000   1.0000   1.0000   1.0000
     1.0000   1.0000   1.0000   1.0000   1.0718   0.0000   0.0000   0.0000
     0.0000

          k = 0.0833 0.3333 0.4167 (  1193 PWs)   bands (ev):

  -118.8297 -73.0134 -73.0130 -73.0114  -9.3447   0.1078   0.2139   0.2960
     0.3140   0.3978   2.9813   4.0099   6.0247   8.3587  12.4913  13.7335
    18.9693

     occupation numbers 
     1.0000   1.0000   1.0000   1.0000   1.0000   1.0000   1.0000   1.0000
     1.0000   1.0000   1.0000   1.0000   1.0177   0.0000   0.0000   0.0000
     0.0000

          k = 0.0833 0.3333-0.5000 (  1192 PWs)   bands (ev):

  -118.8297 -73.0135 -73.0130 -73.0114  -9.3222   0.1174   0.2059   0.2977
     0.3080   0.4138   2.9655   4.0445   6.0429   8.2434  12.3630  13.8004
    19.1717

     occupation numbers 
     1.0000   1.0000   1.0000   1.0000   1.0000   1.0000   1.0000   1.0000
     1.0000   1.0000   1.0000   1.0000   0.9840   0.0000   0.0000   0.0000
     0.0000

          k = 0.0833 0.4167 0.4167 (  1189 PWs)   bands (ev):

  -118.8296 -73.0133 -73.0133 -73.0113  -9.2899   0.1279   0.2206   0.2877
     0.3015   0.4654   3.3073   3.7083   6.0540   7.8746  12.9206  13.3513
    19.1849

     occupation numbers 
     1.0000   1.0000   1.0000   1.0000   1.0000   1.0000   1.0000   1.0000
     1.0000   1.0000   1.0000   1.0000   0.9596   0.0000   0.0000   0.0000
     0.0000

          k = 0.0833 0.4167-0.5000 (  1192 PWs)   bands (ev):

  -118.8296 -73.0135 -73.0133 -73.0113  -9.2696   0.1369   0.2234   0.2890
     0.2899   0.4896   3.3739   3.6883   6.0650   7.6529  12.9747  13.3599
    18.9676

     occupation numbers 
     1.0000   1.0000   1.0000   1.0000   1.0000   1.0000   1.0000   1.0000
     1.0000   1.0000   1.0000   1.0000   0.9328   0.0000   0.0000   0.0000
     0.0000

          k = 0.0833-0.5000-0.5000 (  1196 PWs)   bands (ev):

  -118.8296 -73.0135 -73.0135 -73.0113  -9.2500   0.1442   0.2367   0.2806
     0.2806   0.5167   3.5633   3.5633   6.0733   7.3899  13.2232  13.2232
    18.6484

     occupation numbers 
     1.0000   1.0000   1.0000   1.0000   1.0000   1.0000   1.0000   1.0000
     1.0000   1.0000   1.0000   1.0000   0.9109   0.0000   0.0000   0.0000
     0.0000

          k = 0.1667 0.1667 0.1667 (  1201 PWs)   bands (ev):

  -118.8298 -73.0120 -73.0120 -73.0119  -9.6959   0.0892   0.0892   0.3355
     0.3355   0.3450   2.9144   5.2383   5.2383   7.8599  15.3243  15.3243
    16.3415

     occupation numbers 
     1.0000   1.0000   1.0000   1.0000   1.0000   1.0000   1.0000   1.0000
     1.0000   1.0000   1.0000   1.0000   1.0000   0.0000   0.0000   0.0000
     0.0000

          k = 0.1667 0.1667 0.2500 (  1204 PWs)   bands (ev):

  -118.8298 -73.0125 -73.0120 -73.0120  -9.6045   0.0997   0.1418   0.2824
     0.3245   0.3483   2.8024   4.9869   5.4147   8.2484  14.0426  15.2559
    16.5507

     occupation numbers 
     1.0000   1.0000   1.0000   1.0000   1.0000   1.0000   1.0000   1.0000
     1.0000   1.0000   1.0000   1.0000   1.0000   0.0000   0.0000   0.0000
     0.0000

          k = 0.1667 0.1667 0.3333 (  1193 PWs)   bands (ev):

  -118.8297 -73.0130 -73.0119 -73.0119  -9.5099   0.1118   0.1684   0.2295
     0.3164   0.3550   2.6411   4.9267   5.5967   8.6199  12.7146  15.1625
    17.0853

     occupation numbers 
     1.0000   1.0000   1.0000   1.0000   1.0000   1.0000   1.0000   1.0000
     1.0000   1.0000   1.0000   1.0000   1.0009   0.0000   0.0000   0.0000
     0.0000

          k = 0.1667 0.1667 0.4167 (  1190 PWs)   bands (ev):

  -118.8297 -73.0134 -73.0118 -73.0118  -9.4385   0.1244   0.1723   0.1882
     0.3059   0.3626   2.5077   4.9747   5.7340   8.9684  11.6979  15.0759
    17.5709

     occupation numbers 
     1.0000   1.0000   1.0000   1.0000   1.0000   1.0000   1.0000   1.0000
     1.0000   1.0000   1.0000   1.0000   1.0133   0.0000   0.0000   0.0000
     0.0000

          k = 0.1667 0.1667-0.5000 (  1184 PWs)   bands (ev):

  -118.8297 -73.0135 -73.0118 -73.0118  -9.4119   0.1326   0.1698   0.1715
     0.2989   0.3663   2.4586   5.0089   5.7853   9.1509  11.2742  15.0400
    17.7757

     occupation numbers 
     1.0000   1.0000   1.0000   1.0000   1.0000   1.0000   1.0000   1.0000
     1.0000   1.0000   1.0000   1.0000   1.0277   0.0000   0.0000   0.0000
     0.0000

          k = 0.1667 0.2500 0.2500 (  1205 PWs)   bands (ev):

  -118.8297 -73.0125 -73.0125 -73.0119  -9.5203   0.1229   0.1907   0.2564
     0.3091   0.3386   2.8578   4.7674   5.4153   8.5037  14.0805  14.2395
    16.4776

     occupation numbers 
     1.0000   1.0000   1.0000   1.0000   1.0000   1.0000   1.0000   1.0000
     1.0000   1.0000   1.0000   1.0000   1.0000   0.0000   0.0000   0.0000
     0.0000

          k = 0.1667 0.2500 0.3333 (  1196 PWs)   bands (ev):

  -118.8297 -73.0130 -73.0124 -73.0119  -9.4334   0.1304   0.2148   0.2254
     0.3192   0.3346   2.8586   4.6031   5.5596   8.6958  12.9541  14.1969
    16.9225

     occupation numbers 
     1.0000   1.0000   1.0000   1.0000   1.0000   1.0000   1.0000   1.0000
     1.0000   1.0000   1.0000   1.0000   1.0004   0.0000   0.0000   0.0000
     0.0000

          k = 0.1667 0.2500 0.4167 (  1190 PWs)   bands (ev):

  -118.8297 -73.0133 -73.0124 -73.0118  -9.3679   0.1371   0.1807   0.2361
     0.3105   0.3524   2.8128   4.5953   5.6841   8.8189  12.1202  14.1458
    17.4426

     occupation numbers 
     1.0000   1.0000   1.0000   1.0000   1.0000   1.0000   1.0000   1.0000
     1.0000   1.0000   1.0000   1.0000   1.0056   0.0000   0.0000   0.0000
     0.0000

          k = 0.1667 0.2500-0.5000 (  1196 PWs)   bands (ev):

  -118.8297 -73.0135 -73.0124 -73.0118  -9.3436   0.1444   0.1627   0.2421
     0.2993   0.3622   2.7867   4.6185   5.7322   8.8632  11.8160  14.1164
    17.6899

     occupation numbers 
     1.0000   1.0000   1.0000   1.0000   1.0000   1.0000   1.0000   1.0000
     1.0000   1.0000   1.0000   1.0000   1.0129   0.0000   0.0000   0.0000
     0.0000

          k = 0.1667 0.3333 0.3333 (  1197 PWs)   bands (ev):

  -118.8297 -73.0130 -73.0130 -73.0118  -9.3546   0.1303   0.2134   0.2311
     0.3177   0.3635   3.0815   4.2974   5.6464   8.6389  12.9258  13.4711
    17.1737

     occupation numbers 
     1.0000   1.0000   1.0000   1.0000   1.0000   1.0000   1.0000   1.0000
     1.0000   1.0000   1.0000   1.0000   1.0027   0.0000   0.0000   0.0000
     0.0000

          k = 0.1667 0.3333 0.4167 (  1194 PWs)   bands (ev):

  -118.8297 -73.0133 -73.0129 -73.0118  -9.2954   0.1331   0.1947   0.2364
     0.2947   0.4106   3.1971   4.1956   5.7335   8.4890  12.5018  13.3861
    17.5727

     occupation numbers 
     1.0000   1.0000   1.0000   1.0000   1.0000   1.0000   1.0000   1.0000
     1.0000   1.0000   1.0000   1.0000   1.0132   0.0000   0.0000   0.0000
     0.0000

          k = 0.1667 0.3333-0.5000 (  1192 PWs)   bands (ev):

  -118.8296 -73.0135 -73.0129 -73.0118  -9.2735   0.1379   0.1819   0.2466
     0.2781   0.4278   3.2126   4.2066   5.7684   8.4029  12.3299  13.3838
    17.7951

     occupation numbers 
     1.0000   1.0000   1.0000   1.0000   1.0000   1.0000   1.0000   1.0000
     1.0000   1.0000   1.0000   1.0000   1.0222   0.0000   0.0000   0.0000
     0.0000

          k = 0.1667 0.4167 0.4167 (  1194 PWs)   bands (ev):

  -118.8296 -73.0133 -73.0133 -73.0118  -9.2411   0.1422   0.2105   0.2124
     0.2641   0.4713   3.5342   3.9477   5.7898   8.0933  12.7148  13.0085
    17.8014

     occupation numbers 
     1.0000   1.0000   1.0000   1.0000   1.0000   1.0000   1.0000   1.0000
     1.0000   1.0000   1.0000   1.0000   1.0294   0.0000   0.0000   0.0000
     0.0000

          k = 0.1667 0.4167-0.5000 (  1196 PWs)   bands (ev):

  -118.8296 -73.0135 -73.0133 -73.0118  -9.2209   0.1543   0.1954   0.2275
     0.2391   0.4937   3.6282   3.9188   5.8130   7.9045  12.7100  12.9770
    17.9365

     occupation numbers 
     1.0000   1.0000   1.0000   1.0000   1.0000   1.0000   1.0000   1.0000
     1.0000   1.0000   1.0000   1.0000   1.0387   0.0000   0.0000   0.0000
     0.0000

          k = 0.1667-0.5000-0.5000 (  1196 PWs)   bands (ev):

  -118.8296 -73.0135 -73.0135 -73.0118  -9.2014   0.1839   0.2007   0.2007
     0.2188   0.5180   3.8170   3.8170   5.8313   7.6730  12.8536  12.8536
    18.0010

     occupation numbers 
     1.0000   1.0000   1.0000   1.0000   1.0000   1.0000   1.0000   1.0000
     1.0000   1.0000   1.0000   1.0000   1.0468   0.0000   0.0000   0.0000
     0.0000

          k = 0.2500 0.2500 0.2500 (  1196 PWs)   bands (ev):

  -118.8297 -73.0124 -73.0124 -73.0124  -9.4411   0.1755   0.1755   0.2701
     0.2701   0.3359   2.9747   4.9978   4.9978   8.6443  13.9982  13.9982
    15.6880

     occupation numbers 
     1.0000   1.0000   1.0000   1.0000   1.0000   1.0000   1.0000   1.0000
     1.0000   1.0000   1.0000   1.0000   1.0000   0.0000   0.0000   0.0000
     0.0000

          k = 0.2500 0.2500 0.3333 (  1191 PWs)   bands (ev):

  -118.8297 -73.0130 -73.0124 -73.0123  -9.3595   0.1413   0.1850   0.2533
     0.3166   0.3260   3.0820   4.7114   5.2393   8.7421  13.1016  13.7221
    16.0714

     occupation numbers 
     1.0000   1.0000   1.0000   1.0000   1.0000   1.0000   1.0000   1.0000
     1.0000   1.0000   1.0000   1.0000   1.0000   0.0000   0.0000   0.0000
     0.0000

          k = 0.2500 0.2500 0.4167 (  1194 PWs)   bands (ev):

  -118.8297 -73.0133 -73.0124 -73.0123  -9.2982   0.1088   0.1880   0.2502
     0.2910   0.3689   3.1347   4.6012   5.4253   8.7984  12.3306  13.4967
    16.6644

     occupation numbers 
     1.0000   1.0000   1.0000   1.0000   1.0000   1.0000   1.0000   1.0000
     1.0000   1.0000   1.0000   1.0000   1.0000   0.0000   0.0000   0.0000
     0.0000

          k = 0.2500 0.2500-0.5000 (  1192 PWs)   bands (ev):

  -118.8296 -73.0134 -73.0124 -73.0123  -9.2754   0.0962   0.1921   0.2500
     0.2754   0.3848   3.1444   4.5870   5.4956   8.8170  12.0444  13.4091
    16.9431

     occupation numbers 
     1.0000   1.0000   1.0000   1.0000   1.0000   1.0000   1.0000   1.0000
     1.0000   1.0000   1.0000   1.0000   1.0001   0.0000   0.0000   0.0000
     0.0000

          k = 0.2500 0.3333 0.3333 (  1197 PWs)   bands (ev):

  -118.8296 -73.0130 -73.0129 -73.0124  -9.2836   0.1104   0.1538   0.2821
     0.2919   0.3699   3.3359   4.5881   5.2487   8.7303  12.9535  13.0756
    15.9919

     occupation numbers 
     1.0000   1.0000   1.0000   1.0000   1.0000   1.0000   1.0000   1.0000
     1.0000   1.0000   1.0000   1.0000   1.0000   0.0000   0.0000   0.0000
     0.0000

          k = 0.2500 0.3333 0.4167 (  1190 PWs)   bands (ev):

  -118.8296 -73.0133 -73.0129 -73.0123  -9.2266   0.0804   0.1448   0.2469
     0.2954   0.4215   3.5254   4.4507   5.3880   8.6666  12.4141  12.8590
    16.2728

     occupation numbers 
     1.0000   1.0000   1.0000   1.0000   1.0000   1.0000   1.0000   1.0000
     1.0000   1.0000   1.0000   1.0000   1.0000   0.0000   0.0000   0.0000
     0.0000

          k = 0.2500 0.3333-0.5000 (  1194 PWs)   bands (ev):

  -118.8296 -73.0135 -73.0129 -73.0124  -9.2054   0.0687   0.1476   0.2253
     0.2974   0.4409   3.5855   4.4206   5.4499   8.6252  12.2093  12.7721
    16.4368

     occupation numbers 
     1.0000   1.0000   1.0000   1.0000   1.0000   1.0000   1.0000   1.0000
     1.0000   1.0000   1.0000   1.0000   1.0000   0.0000   0.0000   0.0000
     0.0000

          k = 0.2500 0.4167 0.4167 (  1186 PWs)   bands (ev):

  -118.8296 -73.0132 -73.0132 -73.0123  -9.1729   0.0712   0.1173   0.1933
     0.3116   0.4763   3.8700   4.2881   5.4606   8.4443  12.3480  12.5097
    16.1381

     occupation numbers 
     1.0000   1.0000   1.0000   1.0000   1.0000   1.0000   1.0000   1.0000
     1.0000   1.0000   1.0000   1.0000   1.0000   0.0000   0.0000   0.0000
     0.0000

          k = 0.2500 0.4167-0.5000 (  1192 PWs)   bands (ev):

  -118.8296 -73.0134 -73.0132 -73.0123  -9.1530   0.0709   0.1146   0.1620
     0.3158   0.4976   3.9966   4.2458   5.4997   8.3225  12.2946  12.4171
    16.1157

     occupation numbers 
     1.0000   1.0000   1.0000   1.0000   1.0000   1.0000   1.0000   1.0000
     1.0000   1.0000   1.0000   1.0000   1.0001   0.0000   0.0000   0.0000
     0.0000

          k = 0.2500-0.5000-0.5000 (  1200 PWs)   bands (ev):

  -118.8296 -73.0135 -73.0135 -73.0123  -9.1335   0.1027   0.1027   0.1069
     0.3207   0.5197   4.1774   4.1774   5.5283   8.1607  12.3187  12.3187
    16.0000

     occupation numbers 
     1.0000   1.0000   1.0000   1.0000   1.0000   1.0000   1.0000   1.0000
     1.0000   1.0000   1.0000   1.0000   1.0002   0.0000   0.0000   0.0000
     0.0000

          k = 0.3333 0.3333 0.3333 (  1205 PWs)   bands (ev):

  -118.8296 -73.0130 -73.0130 -73.0129  -9.2107   0.0833   0.0833   0.2366
     0.3749   0.3749   3.6417   4.8978   4.8978   8.7997  12.6418  12.6418
    15.4090

     occupation numbers 
     1.0000   1.0000   1.0000   1.0000   1.0000   1.0000   1.0000   1.0000
     1.0000   1.0000   1.0000   1.0000   1.0000   0.0000   0.0000   0.0000
     0.0000

          k = 0.3333 0.3333 0.4167 (  1192 PWs)   bands (ev):

  -118.8296 -73.0133 -73.0129 -73.0128  -9.1559   0.0350   0.0748   0.1800
     0.3783   0.4392   3.9101   4.6646   5.1414   8.8235  12.2012  12.2976
    15.2889

     occupation numbers 
     1.0000   1.0000   1.0000   1.0000   1.0000   1.0000   1.0000   1.0000
     1.0000   1.0000   1.0000   1.0000   1.0000   0.0000   0.0000   0.0000
     0.0000

          k = 0.3333 0.3333-0.5000 (  1188 PWs)   bands (ev):

  -118.8296 -73.0134 -73.0129 -73.0128  -9.1356   0.0179   0.0788   0.1507
     0.3795   0.4622   4.0211   4.5831   5.2351   8.8223  12.0119  12.1653
    15.2898

     occupation numbers 
     1.0000   1.0000   1.0000   1.0000   1.0000   1.0000   1.0000   1.0000
     1.0000   1.0000   1.0000   1.0000   1.0000   0.0000   0.0000   0.0000
     0.0000

          k = 0.3333 0.4167 0.4167 (  1195 PWs)   bands (ev):

  -118.8296 -73.0133 -73.0132 -73.0129  -9.1029   0.0098   0.0337   0.1114
     0.4103   0.4800   4.2505   4.6541   5.1603   8.8881  11.8978  11.9713
    14.6728

     occupation numbers 
     1.0000   1.0000   1.0000   1.0000   1.0000   1.0000   1.0000   1.0000
     1.0000   1.0000   1.0000   1.0000   1.0000   0.0000   0.0000   0.0000
     0.0000

          k = 0.3333 0.4167-0.5000 (  1186 PWs)   bands (ev):

  -118.8296 -73.0133 -73.0132 -73.0128  -9.0832  -0.0010   0.0314   0.0750
     0.4153   0.5013   4.4045   4.5925   5.2203   8.8875  11.8165  11.8224
    14.4583

     occupation numbers 
     1.0000   1.0000   1.0000   1.0000   1.0000   1.0000   1.0000   1.0000
     1.0000   1.0000   1.0000   1.0000   1.0000   0.0000   0.0000   0.0000
     0.0000

          k = 0.3333-0.5000-0.5000 (  1188 PWs)   bands (ev):

  -118.8296 -73.0133 -73.0133 -73.0128  -9.0638   0.0148   0.0148   0.0239
     0.4222   0.5215   4.5655   4.5655   5.2525   8.8712  11.7437  11.7437
    14.1319

     occupation numbers 
     1.0000   1.0000   1.0000   1.0000   1.0000   1.0000   1.0000   1.0000
     1.0000   1.0000   1.0000   1.0000   1.0000   0.0000   0.0000   0.0000
     0.0000

          k = 0.4167 0.4167 0.4167 (  1178 PWs)   bands (ev):

  -118.8295 -73.0131 -73.0131 -73.0131  -9.0504  -0.0228  -0.0228   0.0374
     0.4824   0.4824   4.5793   4.9466   4.9466   9.3136  11.5464  11.5464
    13.5673

     occupation numbers 
     1.0000   1.0000   1.0000   1.0000   1.0000   1.0000   1.0000   1.0000
     1.0000   1.0000   1.0000   1.0000   1.0000   0.0000   0.0000   0.0000
     0.0000

          k = 0.4167 0.4167-0.5000 (  1176 PWs)   bands (ev):

  -118.8295 -73.0133 -73.0131 -73.0130  -9.0309  -0.0426  -0.0249   0.0001
     0.4832   0.5085   4.7423   4.8404   5.0608   9.5021  11.3828  11.4391
    13.1099

     occupation numbers 
     1.0000   1.0000   1.0000   1.0000   1.0000   1.0000   1.0000   1.0000
     1.0000   1.0000   1.0000   1.0000   1.0000   0.0000   0.0000   0.0000
     0.0000

          k = 0.4167-0.5000-0.5000 (  1184 PWs)   bands (ev):

  -118.8295 -73.0134 -73.0134 -73.0130  -9.0114  -0.0446  -0.0446  -0.0409
     0.4963   0.5227   4.8777   4.8777   5.0657   9.8194  11.2900  11.2900
    12.4637

     occupation numbers 
     1.0000   1.0000   1.0000   1.0000   1.0000   1.0000   1.0000   1.0000
     1.0000   1.0000   1.0000   1.0000   1.0000   0.0000   0.0000   0.0000
     0.0000

          k =-0.5000-0.5000-0.5000 (  1208 PWs)   bands (ev):

  -118.8296 -73.0134 -73.0134 -73.0134  -8.9920  -0.0655  -0.0655  -0.0655
     0.5231   0.5231   5.0003   5.0003   5.0003  10.9243  11.1149  11.1149
    11.1149

     occupation numbers 
     1.0000   1.0000   1.0000   1.0000   1.0000   1.0000   1.0000   1.0000
     1.0000   1.0000   1.0000   1.0000   1.0000   0.0000   0.0000   0.0000
     0.0000

     the Fermi energy is     6.2190 ev

!    total energy              =    -503.09038749 Ry
     estimated scf accuracy    <          3.7E-10 Ry
     smearing contrib. (-TS)   =       0.00137532 Ry
     internal energy E=F+TS    =    -503.09176281 Ry

     The total energy is F=E-TS. E is the sum of the following terms:
     one-electron contribution =    -414.98572208 Ry
     hartree contribution      =     215.13236109 Ry
     xc contribution           =     -49.32897006 Ry
     ewald contribution        =    -244.36760306 Ry
     one-center paw contrib.   =      -9.54182870 Ry
      -> PAW hartree energy AE =      23.82048852 Ry
      -> PAW hartree energy PS =     -23.71787553 Ry
      -> PAW xc energy AE      =     -16.31122033 Ry
      -> PAW xc energy PS      =       6.66677864 Ry
      -> total E_H with PAW    =     215.23497408 Ry
      -> total E_XC with PAW   =     -58.97341175 Ry

     convergence has been achieved in  10 iterations

     Forces acting on atoms (cartesian axes, Ry/au):

     atom    1 type  2   force =     0.00000000    0.00000000    0.00000000
     atom    2 type  1   force =     0.00000000    0.00000000    0.00000000
     The non-local contrib.  to forces
     atom    1 type  2   force =     0.00000000    0.00000000    0.00000000
     atom    2 type  1   force =     0.00000000    0.00000000    0.00000000
     The ionic contribution  to forces
     atom    1 type  2   force =    -0.00000000   -0.00000000   -0.00000000
     atom    2 type  1   force =     0.00000000    0.00000000    0.00000000
     The local contribution  to forces
     atom    1 type  2   force =     0.00000000    0.00000000    0.00000000
     atom    2 type  1   force =     0.00000000    0.00000000    0.00000000
     The core correction contribution to forces
     atom    1 type  2   force =     0.00000000    0.00000000    0.00000000
     atom    2 type  1   force =     0.00000000    0.00000000   -0.00000000
     The Hubbard contrib.    to forces
     atom    1 type  2   force =     0.00000000    0.00000000    0.00000000
     atom    2 type  1   force =     0.00000000    0.00000000    0.00000000
     The SCF correction term to forces
     atom    1 type  2   force =    -0.00000000   -0.00000000   -0.00000000
     atom    2 type  1   force =    -0.00000000   -0.00000000    0.00000000

     Total force =     0.000000     Total SCF correction =     0.000000


     Computing stress (Cartesian axis) and pressure

          total   stress  (Ry/bohr**3)                   (kbar)     P=     -259.97
  -0.00176725   0.00000000   0.00000000         -259.97        0.00        0.00
   0.00000000  -0.00176725   0.00000000            0.00     -259.97        0.00
   0.00000000   0.00000000  -0.00176725            0.00        0.00     -259.97

     kinetic stress (kbar)  27541.61      0.00      0.00
                                0.00  27541.61      0.00
                                0.00      0.00  27541.61

     local   stress (kbar)  -8398.51     -0.00     -0.00
                               -0.00  -8398.51      0.00
                               -0.00      0.00  -8398.51

     nonloc. stress (kbar)   -669.46      0.00      0.00
                                0.00   -669.46      0.00
                                0.00      0.00   -669.46

     hartree stress (kbar)  52694.65      0.00      0.00
                                0.00  52694.65     -0.00
                                0.00     -0.00  52694.65

     exc-cor stress (kbar) -11261.45      0.00      0.00
                                0.00 -11261.45     -0.00
                                0.00     -0.00 -11261.45

     corecor stress (kbar)   -311.26      0.00      0.00
                                0.00   -311.26     -0.00
                                0.00     -0.00   -311.26

     ewald   stress (kbar) -59855.55      0.00     -0.00
                                0.00 -59855.55      0.00
                               -0.00      0.00 -59855.55

     hubbard stress (kbar)      0.00      0.00      0.00
                                0.00      0.00      0.00
                                0.00      0.00      0.00

     DFT-D   stress (kbar)      0.00      0.00      0.00
                                0.00      0.00      0.00
                                0.00      0.00      0.00

     XDM     stress (kbar)      0.00      0.00      0.00
                                0.00      0.00      0.00
                                0.00      0.00      0.00

     dft-nl  stress (kbar)      0.00      0.00      0.00
                                0.00      0.00      0.00
                                0.00      0.00      0.00

     TS-vdW  stress (kbar)      0.00      0.00      0.00
                                0.00      0.00      0.00
                                0.00      0.00      0.00

     MDB     stress (kbar)      0.00      0.00      0.00
                                0.00      0.00      0.00
                                0.00      0.00      0.00

     3D-RISM stress (kbar)      0.00      0.00      0.00
                                0.00      0.00      0.00
                                0.00      0.00      0.00


     Writing all to output data dir ./temp_cubic/aiida.save/ :
     XML data file, charge density, pseudopotentials, collected wavefunctions

     init_run     :    252.98s CPU     10.89s WALL (       1 calls)
     electrons    :   4392.01s CPU    185.75s WALL (       1 calls)
     forces       :     55.80s CPU      2.39s WALL (       1 calls)
     stress       :     19.56s CPU      1.18s WALL (       1 calls)

     Called by init_run:
     wfcinit      :    246.43s CPU     10.36s WALL (       1 calls)
     wfcinit:atom :      5.31s CPU      0.19s WALL (      84 calls)
     wfcinit:wfcr :    236.24s CPU      9.93s WALL (      84 calls)
     potinit      :      2.09s CPU      0.11s WALL (       1 calls)
     hinit0       :      1.59s CPU      0.26s WALL (       1 calls)

     Called by electrons:
     c_bands      :   3490.46s CPU    147.03s WALL (      10 calls)
     sum_band     :    878.88s CPU     37.38s WALL (      10 calls)
     v_of_rho     :      5.43s CPU      0.24s WALL (      11 calls)
     v_h          :      0.92s CPU      0.05s WALL (      11 calls)
     v_xc         :      4.75s CPU      0.20s WALL (      13 calls)
     newd         :      8.31s CPU      0.72s WALL (      11 calls)
     PAW_pot      :      8.62s CPU      0.39s WALL (      11 calls)
     mix_rho      :      0.74s CPU      0.04s WALL (      10 calls)

     Called by c_bands:
     init_us_2    :     50.08s CPU      2.15s WALL (    1932 calls)
     cegterg      :   3396.28s CPU    143.06s WALL (     840 calls)

     Called by sum_band:
     sum_band:wei :      0.13s CPU      0.02s WALL (      10 calls)
     sum_band:loo :    873.87s CPU     36.62s WALL (      10 calls)
     sum_band:buf :      0.97s CPU      0.04s WALL (     840 calls)
     sum_band:ini :     26.49s CPU      1.03s WALL (     840 calls)
     sum_band:cal :     16.48s CPU      0.73s WALL (     840 calls)
     sum_band:bec :     41.83s CPU      1.67s WALL (     840 calls)
     addusdens    :      4.37s CPU      0.67s WALL (      10 calls)
                                        0.00s GPU  (      10 calls)
     addusd:skk   :      0.01s CPU      0.00s WALL (      20 calls)
                                        0.00s GPU  (      20 calls)

     Called by *egterg:
     cdiaghg      :     18.47s CPU      0.72s WALL (    2452 calls)
     cegterg:over :     50.20s CPU      2.31s WALL (    1612 calls)
     cegterg:upda :     58.72s CPU      2.75s WALL (    1612 calls)
     cegterg:last :     90.81s CPU      3.23s WALL (    1543 calls)
     h_psi        :   3192.00s CPU    134.68s WALL (    2536 calls)
     s_psi        :     47.70s CPU      1.97s WALL (    2536 calls)
     g_psi        :     39.12s CPU      1.82s WALL (    1612 calls)

     Called by h_psi:
     h_psi:calbec :     43.26s CPU      1.81s WALL (    2536 calls)
     vloc_psi     :   3026.45s CPU    127.75s WALL (    2536 calls)
     add_vuspsi   :     45.07s CPU      1.92s WALL (    2536 calls)

     General routines
     calbec       :     67.04s CPU      2.83s WALL (    3796 calls)
     fft          :      3.96s CPU      0.14s WALL (     166 calls)
     ffts         :      0.23s CPU      0.01s WALL (      21 calls)
     fftw         :    360.39s CPU     15.39s WALL (   80034 calls)
     interpolate  :      1.34s CPU      0.02s WALL (      11 calls)

     Parallel routines

     PAW routines
     PAW_pot      :      8.62s CPU      0.39s WALL (      11 calls)
     PAW_symme    :      0.00s CPU      0.00s WALL (      21 calls)

     PWSCF        :      1h19m CPU   3m23.13s WALL


   This run was terminated on:  23:44:15   7Jun2024            

=------------------------------------------------------------------------------=
   JOB DONE.
=------------------------------------------------------------------------------=
