
     Program PWSCF v.7.3.1 starts on 13Jun2024 at 17:18: 1 

     This program is part of the open-source Quantum ESPRESSO suite
     for quantum simulation of materials; please cite
         "P. Giannozzi et al., J. Phys.:Condens. Matter 21 395502 (2009);
         "P. Giannozzi et al., J. Phys.:Condens. Matter 29 465901 (2017);
         "P. Giannozzi et al., J. Chem. Phys. 152 154105 (2020);
          URL http://www.quantum-espresso.org", 
     in publications or presentations arising from this work. More details at
     http://www.quantum-espresso.org/quote

     Parallel version (MPI & OpenMP), running on      24 processor cores
     Number of MPI processes:                 1
     Threads/MPI process:                    24

     MPI processes distributed on     1 nodes
     4932 MiB available memory on the printing compute node when the environment starts

     Waiting for input...
     Reading input from standard input

     Current dimensions of program PWSCF are:
     Max number of different atomic species (ntypx) = 10
     Max number of k-points (npk) =  40000
     Max angular momentum in pseudopotentials (lmaxx) =  4
     file O.pbe-n-kjpaw_psl.0.1.UPF: wavefunction(s)  2P renormalized
     Message from routine setup:
     using ibrav=0 with symmetry is DISCOURAGED, use correct ibrav instead

     Subspace diagonalization in iterative solution of the eigenvalue problem:
     a serial algorithm will be used


     G-vector sticks info
     --------------------
     sticks:   dense  smooth     PW     G-vecs:    dense   smooth      PW
     Sum         829     411    137                17773     6321    1209

     Using Slab Decomposition



     bravais-lattice index     =            0
     lattice parameter (alat)  =       5.0874  a.u.
     unit-cell volume          =     131.5995 (a.u.)^3
     number of atoms/cell      =            2
     number of atomic types    =            2
     number of electrons       =        26.00
     number of Kohn-Sham states=           17
     kinetic-energy cutoff     =      50.0000  Ry
     charge density cutoff     =     400.0000  Ry
     scf convergence threshold =      1.0E-08
     mixing beta               =       0.4000
     number of iterations used =            8  plain     mixing
     Exchange-correlation= SLA  PW   PBE  PBE
                           (   1   4   3   4   0   0   0)

     celldm(1)=   5.087443  celldm(2)=   0.000000  celldm(3)=   0.000000
     celldm(4)=   0.000000  celldm(5)=   0.000000  celldm(6)=   0.000000

     crystal axes: (cart. coord. in units of alat)
               a(1) = (   0.999888   0.014998   0.000000 )  
               a(2) = (   0.014998   0.999888   0.000000 )  
               a(3) = (   0.000000   0.000000   0.999888 )  

     reciprocal axes: (cart. coord. in units 2 pi/alat)
               b(1) = (  1.000338 -0.015005  0.000000 )  
               b(2) = ( -0.015005  1.000338  0.000000 )  
               b(3) = (  0.000000  0.000000  1.000112 )  


     PseudoPot. # 1 for O  read from file:
     ../SSSP_1.3.0_PBE_efficiency/O.pbe-n-kjpaw_psl.0.1.UPF
     MD5 check sum: 0234752ac141de4415c5fc33072bef88
     Pseudo is Projector augmented-wave + core cor, Zval =  6.0
     Generated using "atomic" code by A. Dal Corso  v.5.0.99 svn rev. 10869
     Shape of augmentation charge: BESSEL
     Using radial grid of 1095 points,  4 beta functions with: 
                l(1) =   0
                l(2) =   0
                l(3) =   1
                l(4) =   1
     Q(r) pseudized with 0 coefficients 


     PseudoPot. # 2 for Zn read from file:
     ../SSSP_1.3.0_PBE_efficiency/Zn_pbe_v1.uspp.F.UPF
     MD5 check sum: df62231357ef9e81f77b2b3087fa5675
     Pseudo is Ultrasoft, Zval = 20.0
     Generated by new atomic code, or converted to UPF format
     Using radial grid of  943 points,  6 beta functions with: 
                l(1) =   0
                l(2) =   0
                l(3) =   1
                l(4) =   1
                l(5) =   2
                l(6) =   2
     Q(r) pseudized with  8 coefficients,  rinner =    1.100   1.100   1.100
                                                       1.100   1.100

     atomic species   valence    mass     pseudopotential
     O                 6.00    15.99940     O ( 1.00)
     Zn               20.00    65.38000     Zn( 1.00)

      8 Sym. Ops., with inversion, found


                                    s                        frac. trans.

      isym =  1     identity                                     

 cryst.   s( 1) = (     1          0          0      )
                  (     0          1          0      )
                  (     0          0          1      )

 cart.    s( 1) = (  1.0000000  0.0000000  0.0000000 )
                  (  0.0000000  1.0000000  0.0000000 )
                  (  0.0000000  0.0000000  1.0000000 )


      isym =  2     180 deg rotation - cart. axis [0,0,1]        

 cryst.   s( 2) = (    -1          0          0      )
                  (     0         -1          0      )
                  (     0          0          1      )

 cart.    s( 2) = ( -1.0000000  0.0000000  0.0000000 )
                  (  0.0000000 -1.0000000  0.0000000 )
                  (  0.0000000  0.0000000  1.0000000 )


      isym =  3     180 deg rotation - cart. axis [1,1,0]        

 cryst.   s( 3) = (     0          1          0      )
                  (     1          0          0      )
                  (     0          0         -1      )

 cart.    s( 3) = (  0.0000000  1.0000000  0.0000000 )
                  (  1.0000000  0.0000000  0.0000000 )
                  (  0.0000000  0.0000000 -1.0000000 )


      isym =  4     180 deg rotation - cart. axis [1,-1,0]       

 cryst.   s( 4) = (     0         -1          0      )
                  (    -1          0          0      )
                  (     0          0         -1      )

 cart.    s( 4) = (  0.0000000 -1.0000000  0.0000000 )
                  ( -1.0000000  0.0000000  0.0000000 )
                  (  0.0000000  0.0000000 -1.0000000 )


      isym =  5     inversion                                    

 cryst.   s( 5) = (    -1          0          0      )
                  (     0         -1          0      )
                  (     0          0         -1      )

 cart.    s( 5) = ( -1.0000000  0.0000000  0.0000000 )
                  (  0.0000000 -1.0000000  0.0000000 )
                  (  0.0000000  0.0000000 -1.0000000 )


      isym =  6     inv. 180 deg rotation - cart. axis [0,0,1]   

 cryst.   s( 6) = (     1          0          0      )
                  (     0          1          0      )
                  (     0          0         -1      )

 cart.    s( 6) = (  1.0000000  0.0000000  0.0000000 )
                  (  0.0000000  1.0000000  0.0000000 )
                  (  0.0000000  0.0000000 -1.0000000 )


      isym =  7     inv. 180 deg rotation - cart. axis [1,1,0]   

 cryst.   s( 7) = (     0         -1          0      )
                  (    -1          0          0      )
                  (     0          0          1      )

 cart.    s( 7) = (  0.0000000 -1.0000000  0.0000000 )
                  ( -1.0000000  0.0000000  0.0000000 )
                  (  0.0000000  0.0000000  1.0000000 )


      isym =  8     inv. 180 deg rotation - cart. axis [1,-1,0]  

 cryst.   s( 8) = (     0          1          0      )
                  (     1          0          0      )
                  (     0          0          1      )

 cart.    s( 8) = (  0.0000000  1.0000000  0.0000000 )
                  (  1.0000000  0.0000000  0.0000000 )
                  (  0.0000000  0.0000000  1.0000000 )


   Cartesian axes

     site n.     atom                  positions (alat units)
         1        Zn     tau(   1) = (   0.0000000   0.0000000   0.0000000  )
         2        O      tau(   2) = (   0.5074429   0.5074429   0.4999438  )

   Crystallographic axes

     site n.     atom                  positions (cryst. coord.)
         1        Zn     tau(   1) = (  0.0000000  0.0000000  0.0000000  )
         2        O      tau(   2) = (  0.5000000  0.5000000  0.5000000  )

     number of k points=   301  Marzari-Vanderbilt smearing, width (Ry)=  0.0147
                       cart. coord. in units 2pi/alat
        k(    1) = (   0.0000000   0.0000000   0.0000000), wk =   0.0011574
        k(    2) = (   0.0000000   0.0000000   0.0833427), wk =   0.0023148
        k(    3) = (   0.0000000   0.0000000   0.1666854), wk =   0.0023148
        k(    4) = (   0.0000000   0.0000000   0.2500281), wk =   0.0023148
        k(    5) = (   0.0000000   0.0000000   0.3333708), wk =   0.0023148
        k(    6) = (   0.0000000   0.0000000   0.4167135), wk =   0.0023148
        k(    7) = (   0.0000000   0.0000000  -0.5000562), wk =   0.0011574
        k(    8) = (  -0.0012504   0.0833615   0.0000000), wk =   0.0046296
        k(    9) = (  -0.0012504   0.0833615   0.0833427), wk =   0.0092593
        k(   10) = (  -0.0012504   0.0833615   0.1666854), wk =   0.0092593
        k(   11) = (  -0.0012504   0.0833615   0.2500281), wk =   0.0092593
        k(   12) = (  -0.0012504   0.0833615   0.3333708), wk =   0.0092593
        k(   13) = (  -0.0012504   0.0833615   0.4167135), wk =   0.0092593
        k(   14) = (  -0.0012504   0.0833615  -0.5000562), wk =   0.0046296
        k(   15) = (  -0.0025008   0.1667229   0.0000000), wk =   0.0046296
        k(   16) = (  -0.0025008   0.1667229   0.0833427), wk =   0.0092593
        k(   17) = (  -0.0025008   0.1667229   0.1666854), wk =   0.0092593
        k(   18) = (  -0.0025008   0.1667229   0.2500281), wk =   0.0092593
        k(   19) = (  -0.0025008   0.1667229   0.3333708), wk =   0.0092593
        k(   20) = (  -0.0025008   0.1667229   0.4167135), wk =   0.0092593
        k(   21) = (  -0.0025008   0.1667229  -0.5000562), wk =   0.0046296
        k(   22) = (  -0.0037513   0.2500844   0.0000000), wk =   0.0046296
        k(   23) = (  -0.0037513   0.2500844   0.0833427), wk =   0.0092593
        k(   24) = (  -0.0037513   0.2500844   0.1666854), wk =   0.0092593
        k(   25) = (  -0.0037513   0.2500844   0.2500281), wk =   0.0092593
        k(   26) = (  -0.0037513   0.2500844   0.3333708), wk =   0.0092593
        k(   27) = (  -0.0037513   0.2500844   0.4167135), wk =   0.0092593
        k(   28) = (  -0.0037513   0.2500844  -0.5000562), wk =   0.0046296
        k(   29) = (  -0.0050017   0.3334459   0.0000000), wk =   0.0046296
        k(   30) = (  -0.0050017   0.3334459   0.0833427), wk =   0.0092593
        k(   31) = (  -0.0050017   0.3334459   0.1666854), wk =   0.0092593
        k(   32) = (  -0.0050017   0.3334459   0.2500281), wk =   0.0092593
        k(   33) = (  -0.0050017   0.3334459   0.3333708), wk =   0.0092593
        k(   34) = (  -0.0050017   0.3334459   0.4167135), wk =   0.0092593
        k(   35) = (  -0.0050017   0.3334459  -0.5000562), wk =   0.0046296
        k(   36) = (  -0.0062521   0.4168073   0.0000000), wk =   0.0046296
        k(   37) = (  -0.0062521   0.4168073   0.0833427), wk =   0.0092593
        k(   38) = (  -0.0062521   0.4168073   0.1666854), wk =   0.0092593
        k(   39) = (  -0.0062521   0.4168073   0.2500281), wk =   0.0092593
        k(   40) = (  -0.0062521   0.4168073   0.3333708), wk =   0.0092593
        k(   41) = (  -0.0062521   0.4168073   0.4167135), wk =   0.0092593
        k(   42) = (  -0.0062521   0.4168073  -0.5000562), wk =   0.0046296
        k(   43) = (   0.0075025  -0.5001688   0.0000000), wk =   0.0023148
        k(   44) = (   0.0075025  -0.5001688   0.0833427), wk =   0.0046296
        k(   45) = (   0.0075025  -0.5001688   0.1666854), wk =   0.0046296
        k(   46) = (   0.0075025  -0.5001688   0.2500281), wk =   0.0046296
        k(   47) = (   0.0075025  -0.5001688   0.3333708), wk =   0.0046296
        k(   48) = (   0.0075025  -0.5001688   0.4167135), wk =   0.0046296
        k(   49) = (   0.0075025  -0.5001688  -0.5000562), wk =   0.0023148
        k(   50) = (   0.0821110   0.0821110   0.0000000), wk =   0.0023148
        k(   51) = (   0.0821110   0.0821110   0.0833427), wk =   0.0046296
        k(   52) = (   0.0821110   0.0821110   0.1666854), wk =   0.0046296
        k(   53) = (   0.0821110   0.0821110   0.2500281), wk =   0.0046296
        k(   54) = (   0.0821110   0.0821110   0.3333708), wk =   0.0046296
        k(   55) = (   0.0821110   0.0821110   0.4167135), wk =   0.0046296
        k(   56) = (   0.0821110   0.0821110  -0.5000562), wk =   0.0023148
        k(   57) = (   0.0808606   0.1654725   0.0000000), wk =   0.0046296
        k(   58) = (   0.0808606   0.1654725   0.0833427), wk =   0.0092593
        k(   59) = (   0.0808606   0.1654725   0.1666854), wk =   0.0092593
        k(   60) = (   0.0808606   0.1654725   0.2500281), wk =   0.0092593
        k(   61) = (   0.0808606   0.1654725   0.3333708), wk =   0.0092593
        k(   62) = (   0.0808606   0.1654725   0.4167135), wk =   0.0092593
        k(   63) = (   0.0808606   0.1654725  -0.5000562), wk =   0.0046296
        k(   64) = (   0.0796102   0.2488340   0.0000000), wk =   0.0046296
        k(   65) = (   0.0796102   0.2488340   0.0833427), wk =   0.0092593
        k(   66) = (   0.0796102   0.2488340   0.1666854), wk =   0.0092593
        k(   67) = (   0.0796102   0.2488340   0.2500281), wk =   0.0092593
        k(   68) = (   0.0796102   0.2488340   0.3333708), wk =   0.0092593
        k(   69) = (   0.0796102   0.2488340   0.4167135), wk =   0.0092593
        k(   70) = (   0.0796102   0.2488340  -0.5000562), wk =   0.0046296
        k(   71) = (   0.0783598   0.3321954   0.0000000), wk =   0.0046296
        k(   72) = (   0.0783598   0.3321954   0.0833427), wk =   0.0092593
        k(   73) = (   0.0783598   0.3321954   0.1666854), wk =   0.0092593
        k(   74) = (   0.0783598   0.3321954   0.2500281), wk =   0.0092593
        k(   75) = (   0.0783598   0.3321954   0.3333708), wk =   0.0092593
        k(   76) = (   0.0783598   0.3321954   0.4167135), wk =   0.0092593
        k(   77) = (   0.0783598   0.3321954  -0.5000562), wk =   0.0046296
        k(   78) = (   0.0771094   0.4155569   0.0000000), wk =   0.0046296
        k(   79) = (   0.0771094   0.4155569   0.0833427), wk =   0.0092593
        k(   80) = (   0.0771094   0.4155569   0.1666854), wk =   0.0092593
        k(   81) = (   0.0771094   0.4155569   0.2500281), wk =   0.0092593
        k(   82) = (   0.0771094   0.4155569   0.3333708), wk =   0.0092593
        k(   83) = (   0.0771094   0.4155569   0.4167135), wk =   0.0092593
        k(   84) = (   0.0771094   0.4155569  -0.5000562), wk =   0.0046296
        k(   85) = (   0.0908640  -0.5014192   0.0000000), wk =   0.0046296
        k(   86) = (   0.0908640  -0.5014192   0.0833427), wk =   0.0092593
        k(   87) = (   0.0908640  -0.5014192   0.1666854), wk =   0.0092593
        k(   88) = (   0.0908640  -0.5014192   0.2500281), wk =   0.0092593
        k(   89) = (   0.0908640  -0.5014192   0.3333708), wk =   0.0092593
        k(   90) = (   0.0908640  -0.5014192   0.4167135), wk =   0.0092593
        k(   91) = (   0.0908640  -0.5014192  -0.5000562), wk =   0.0046296
        k(   92) = (   0.0896136  -0.4180577   0.0000000), wk =   0.0046296
        k(   93) = (   0.0896136  -0.4180577   0.0833427), wk =   0.0092593
        k(   94) = (   0.0896136  -0.4180577   0.1666854), wk =   0.0092593
        k(   95) = (   0.0896136  -0.4180577   0.2500281), wk =   0.0092593
        k(   96) = (   0.0896136  -0.4180577   0.3333708), wk =   0.0092593
        k(   97) = (   0.0896136  -0.4180577   0.4167135), wk =   0.0092593
        k(   98) = (   0.0896136  -0.4180577  -0.5000562), wk =   0.0046296
        k(   99) = (   0.0883632  -0.3346963   0.0000000), wk =   0.0046296
        k(  100) = (   0.0883632  -0.3346963   0.0833427), wk =   0.0092593
        k(  101) = (   0.0883632  -0.3346963   0.1666854), wk =   0.0092593
        k(  102) = (   0.0883632  -0.3346963   0.2500281), wk =   0.0092593
        k(  103) = (   0.0883632  -0.3346963   0.3333708), wk =   0.0092593
        k(  104) = (   0.0883632  -0.3346963   0.4167135), wk =   0.0092593
        k(  105) = (   0.0883632  -0.3346963  -0.5000562), wk =   0.0046296
        k(  106) = (   0.0871127  -0.2513348   0.0000000), wk =   0.0046296
        k(  107) = (   0.0871127  -0.2513348   0.0833427), wk =   0.0092593
        k(  108) = (   0.0871127  -0.2513348   0.1666854), wk =   0.0092593
        k(  109) = (   0.0871127  -0.2513348   0.2500281), wk =   0.0092593
        k(  110) = (   0.0871127  -0.2513348   0.3333708), wk =   0.0092593
        k(  111) = (   0.0871127  -0.2513348   0.4167135), wk =   0.0092593
        k(  112) = (   0.0871127  -0.2513348  -0.5000562), wk =   0.0046296
        k(  113) = (   0.0858623  -0.1679734   0.0000000), wk =   0.0046296
        k(  114) = (   0.0858623  -0.1679734   0.0833427), wk =   0.0092593
        k(  115) = (   0.0858623  -0.1679734   0.1666854), wk =   0.0092593
        k(  116) = (   0.0858623  -0.1679734   0.2500281), wk =   0.0092593
        k(  117) = (   0.0858623  -0.1679734   0.3333708), wk =   0.0092593
        k(  118) = (   0.0858623  -0.1679734   0.4167135), wk =   0.0092593
        k(  119) = (   0.0858623  -0.1679734  -0.5000562), wk =   0.0046296
        k(  120) = (   0.0846119  -0.0846119   0.0000000), wk =   0.0023148
        k(  121) = (   0.0846119  -0.0846119   0.0833427), wk =   0.0046296
        k(  122) = (   0.0846119  -0.0846119   0.1666854), wk =   0.0046296
        k(  123) = (   0.0846119  -0.0846119   0.2500281), wk =   0.0046296
        k(  124) = (   0.0846119  -0.0846119   0.3333708), wk =   0.0046296
        k(  125) = (   0.0846119  -0.0846119   0.4167135), wk =   0.0046296
        k(  126) = (   0.0846119  -0.0846119  -0.5000562), wk =   0.0023148
        k(  127) = (   0.1642221   0.1642221   0.0000000), wk =   0.0023148
        k(  128) = (   0.1642221   0.1642221   0.0833427), wk =   0.0046296
        k(  129) = (   0.1642221   0.1642221   0.1666854), wk =   0.0046296
        k(  130) = (   0.1642221   0.1642221   0.2500281), wk =   0.0046296
        k(  131) = (   0.1642221   0.1642221   0.3333708), wk =   0.0046296
        k(  132) = (   0.1642221   0.1642221   0.4167135), wk =   0.0046296
        k(  133) = (   0.1642221   0.1642221  -0.5000562), wk =   0.0023148
        k(  134) = (   0.1629717   0.2475835   0.0000000), wk =   0.0046296
        k(  135) = (   0.1629717   0.2475835   0.0833427), wk =   0.0092593
        k(  136) = (   0.1629717   0.2475835   0.1666854), wk =   0.0092593
        k(  137) = (   0.1629717   0.2475835   0.2500281), wk =   0.0092593
        k(  138) = (   0.1629717   0.2475835   0.3333708), wk =   0.0092593
        k(  139) = (   0.1629717   0.2475835   0.4167135), wk =   0.0092593
        k(  140) = (   0.1629717   0.2475835  -0.5000562), wk =   0.0046296
        k(  141) = (   0.1617212   0.3309450   0.0000000), wk =   0.0046296
        k(  142) = (   0.1617212   0.3309450   0.0833427), wk =   0.0092593
        k(  143) = (   0.1617212   0.3309450   0.1666854), wk =   0.0092593
        k(  144) = (   0.1617212   0.3309450   0.2500281), wk =   0.0092593
        k(  145) = (   0.1617212   0.3309450   0.3333708), wk =   0.0092593
        k(  146) = (   0.1617212   0.3309450   0.4167135), wk =   0.0092593
        k(  147) = (   0.1617212   0.3309450  -0.5000562), wk =   0.0046296
        k(  148) = (   0.1604708   0.4143065   0.0000000), wk =   0.0046296
        k(  149) = (   0.1604708   0.4143065   0.0833427), wk =   0.0092593
        k(  150) = (   0.1604708   0.4143065   0.1666854), wk =   0.0092593
        k(  151) = (   0.1604708   0.4143065   0.2500281), wk =   0.0092593
        k(  152) = (   0.1604708   0.4143065   0.3333708), wk =   0.0092593
        k(  153) = (   0.1604708   0.4143065   0.4167135), wk =   0.0092593
        k(  154) = (   0.1604708   0.4143065  -0.5000562), wk =   0.0046296
        k(  155) = (   0.1742255  -0.5026696   0.0000000), wk =   0.0046296
        k(  156) = (   0.1742255  -0.5026696   0.0833427), wk =   0.0092593
        k(  157) = (   0.1742255  -0.5026696   0.1666854), wk =   0.0092593
        k(  158) = (   0.1742255  -0.5026696   0.2500281), wk =   0.0092593
        k(  159) = (   0.1742255  -0.5026696   0.3333708), wk =   0.0092593
        k(  160) = (   0.1742255  -0.5026696   0.4167135), wk =   0.0092593
        k(  161) = (   0.1742255  -0.5026696  -0.5000562), wk =   0.0046296
        k(  162) = (   0.1729750  -0.4193082   0.0000000), wk =   0.0046296
        k(  163) = (   0.1729750  -0.4193082   0.0833427), wk =   0.0092593
        k(  164) = (   0.1729750  -0.4193082   0.1666854), wk =   0.0092593
        k(  165) = (   0.1729750  -0.4193082   0.2500281), wk =   0.0092593
        k(  166) = (   0.1729750  -0.4193082   0.3333708), wk =   0.0092593
        k(  167) = (   0.1729750  -0.4193082   0.4167135), wk =   0.0092593
        k(  168) = (   0.1729750  -0.4193082  -0.5000562), wk =   0.0046296
        k(  169) = (   0.1717246  -0.3359467   0.0000000), wk =   0.0046296
        k(  170) = (   0.1717246  -0.3359467   0.0833427), wk =   0.0092593
        k(  171) = (   0.1717246  -0.3359467   0.1666854), wk =   0.0092593
        k(  172) = (   0.1717246  -0.3359467   0.2500281), wk =   0.0092593
        k(  173) = (   0.1717246  -0.3359467   0.3333708), wk =   0.0092593
        k(  174) = (   0.1717246  -0.3359467   0.4167135), wk =   0.0092593
        k(  175) = (   0.1717246  -0.3359467  -0.5000562), wk =   0.0046296
        k(  176) = (   0.1704742  -0.2525852   0.0000000), wk =   0.0046296
        k(  177) = (   0.1704742  -0.2525852   0.0833427), wk =   0.0092593
        k(  178) = (   0.1704742  -0.2525852   0.1666854), wk =   0.0092593
        k(  179) = (   0.1704742  -0.2525852   0.2500281), wk =   0.0092593
        k(  180) = (   0.1704742  -0.2525852   0.3333708), wk =   0.0092593
        k(  181) = (   0.1704742  -0.2525852   0.4167135), wk =   0.0092593
        k(  182) = (   0.1704742  -0.2525852  -0.5000562), wk =   0.0046296
        k(  183) = (   0.1692238  -0.1692238   0.0000000), wk =   0.0023148
        k(  184) = (   0.1692238  -0.1692238   0.0833427), wk =   0.0046296
        k(  185) = (   0.1692238  -0.1692238   0.1666854), wk =   0.0046296
        k(  186) = (   0.1692238  -0.1692238   0.2500281), wk =   0.0046296
        k(  187) = (   0.1692238  -0.1692238   0.3333708), wk =   0.0046296
        k(  188) = (   0.1692238  -0.1692238   0.4167135), wk =   0.0046296
        k(  189) = (   0.1692238  -0.1692238  -0.5000562), wk =   0.0023148
        k(  190) = (   0.2463331   0.2463331   0.0000000), wk =   0.0023148
        k(  191) = (   0.2463331   0.2463331   0.0833427), wk =   0.0046296
        k(  192) = (   0.2463331   0.2463331   0.1666854), wk =   0.0046296
        k(  193) = (   0.2463331   0.2463331   0.2500281), wk =   0.0046296
        k(  194) = (   0.2463331   0.2463331   0.3333708), wk =   0.0046296
        k(  195) = (   0.2463331   0.2463331   0.4167135), wk =   0.0046296
        k(  196) = (   0.2463331   0.2463331  -0.5000562), wk =   0.0023148
        k(  197) = (   0.2450827   0.3296946   0.0000000), wk =   0.0046296
        k(  198) = (   0.2450827   0.3296946   0.0833427), wk =   0.0092593
        k(  199) = (   0.2450827   0.3296946   0.1666854), wk =   0.0092593
        k(  200) = (   0.2450827   0.3296946   0.2500281), wk =   0.0092593
        k(  201) = (   0.2450827   0.3296946   0.3333708), wk =   0.0092593
        k(  202) = (   0.2450827   0.3296946   0.4167135), wk =   0.0092593
        k(  203) = (   0.2450827   0.3296946  -0.5000562), wk =   0.0046296
        k(  204) = (   0.2438323   0.4130561   0.0000000), wk =   0.0046296
        k(  205) = (   0.2438323   0.4130561   0.0833427), wk =   0.0092593
        k(  206) = (   0.2438323   0.4130561   0.1666854), wk =   0.0092593
        k(  207) = (   0.2438323   0.4130561   0.2500281), wk =   0.0092593
        k(  208) = (   0.2438323   0.4130561   0.3333708), wk =   0.0092593
        k(  209) = (   0.2438323   0.4130561   0.4167135), wk =   0.0092593
        k(  210) = (   0.2438323   0.4130561  -0.5000562), wk =   0.0046296
        k(  211) = (   0.2575869  -0.5039201   0.0000000), wk =   0.0046296
        k(  212) = (   0.2575869  -0.5039201   0.0833427), wk =   0.0092593
        k(  213) = (   0.2575869  -0.5039201   0.1666854), wk =   0.0092593
        k(  214) = (   0.2575869  -0.5039201   0.2500281), wk =   0.0092593
        k(  215) = (   0.2575869  -0.5039201   0.3333708), wk =   0.0092593
        k(  216) = (   0.2575869  -0.5039201   0.4167135), wk =   0.0092593
        k(  217) = (   0.2575869  -0.5039201  -0.5000562), wk =   0.0046296
        k(  218) = (   0.2563365  -0.4205586   0.0000000), wk =   0.0046296
        k(  219) = (   0.2563365  -0.4205586   0.0833427), wk =   0.0092593
        k(  220) = (   0.2563365  -0.4205586   0.1666854), wk =   0.0092593
        k(  221) = (   0.2563365  -0.4205586   0.2500281), wk =   0.0092593
        k(  222) = (   0.2563365  -0.4205586   0.3333708), wk =   0.0092593
        k(  223) = (   0.2563365  -0.4205586   0.4167135), wk =   0.0092593
        k(  224) = (   0.2563365  -0.4205586  -0.5000562), wk =   0.0046296
        k(  225) = (   0.2550861  -0.3371971   0.0000000), wk =   0.0046296
        k(  226) = (   0.2550861  -0.3371971   0.0833427), wk =   0.0092593
        k(  227) = (   0.2550861  -0.3371971   0.1666854), wk =   0.0092593
        k(  228) = (   0.2550861  -0.3371971   0.2500281), wk =   0.0092593
        k(  229) = (   0.2550861  -0.3371971   0.3333708), wk =   0.0092593
        k(  230) = (   0.2550861  -0.3371971   0.4167135), wk =   0.0092593
        k(  231) = (   0.2550861  -0.3371971  -0.5000562), wk =   0.0046296
        k(  232) = (   0.2538357  -0.2538357   0.0000000), wk =   0.0023148
        k(  233) = (   0.2538357  -0.2538357   0.0833427), wk =   0.0046296
        k(  234) = (   0.2538357  -0.2538357   0.1666854), wk =   0.0046296
        k(  235) = (   0.2538357  -0.2538357   0.2500281), wk =   0.0046296
        k(  236) = (   0.2538357  -0.2538357   0.3333708), wk =   0.0046296
        k(  237) = (   0.2538357  -0.2538357   0.4167135), wk =   0.0046296
        k(  238) = (   0.2538357  -0.2538357  -0.5000562), wk =   0.0023148
        k(  239) = (   0.3284442   0.3284442   0.0000000), wk =   0.0023148
        k(  240) = (   0.3284442   0.3284442   0.0833427), wk =   0.0046296
        k(  241) = (   0.3284442   0.3284442   0.1666854), wk =   0.0046296
        k(  242) = (   0.3284442   0.3284442   0.2500281), wk =   0.0046296
        k(  243) = (   0.3284442   0.3284442   0.3333708), wk =   0.0046296
        k(  244) = (   0.3284442   0.3284442   0.4167135), wk =   0.0046296
        k(  245) = (   0.3284442   0.3284442  -0.5000562), wk =   0.0023148
        k(  246) = (   0.3271937   0.4118056   0.0000000), wk =   0.0046296
        k(  247) = (   0.3271937   0.4118056   0.0833427), wk =   0.0092593
        k(  248) = (   0.3271937   0.4118056   0.1666854), wk =   0.0092593
        k(  249) = (   0.3271937   0.4118056   0.2500281), wk =   0.0092593
        k(  250) = (   0.3271937   0.4118056   0.3333708), wk =   0.0092593
        k(  251) = (   0.3271937   0.4118056   0.4167135), wk =   0.0092593
        k(  252) = (   0.3271937   0.4118056  -0.5000562), wk =   0.0046296
        k(  253) = (   0.3409484  -0.5051705   0.0000000), wk =   0.0046296
        k(  254) = (   0.3409484  -0.5051705   0.0833427), wk =   0.0092593
        k(  255) = (   0.3409484  -0.5051705   0.1666854), wk =   0.0092593
        k(  256) = (   0.3409484  -0.5051705   0.2500281), wk =   0.0092593
        k(  257) = (   0.3409484  -0.5051705   0.3333708), wk =   0.0092593
        k(  258) = (   0.3409484  -0.5051705   0.4167135), wk =   0.0092593
        k(  259) = (   0.3409484  -0.5051705  -0.5000562), wk =   0.0046296
        k(  260) = (   0.3396980  -0.4218090   0.0000000), wk =   0.0046296
        k(  261) = (   0.3396980  -0.4218090   0.0833427), wk =   0.0092593
        k(  262) = (   0.3396980  -0.4218090   0.1666854), wk =   0.0092593
        k(  263) = (   0.3396980  -0.4218090   0.2500281), wk =   0.0092593
        k(  264) = (   0.3396980  -0.4218090   0.3333708), wk =   0.0092593
        k(  265) = (   0.3396980  -0.4218090   0.4167135), wk =   0.0092593
        k(  266) = (   0.3396980  -0.4218090  -0.5000562), wk =   0.0046296
        k(  267) = (   0.3384475  -0.3384475   0.0000000), wk =   0.0023148
        k(  268) = (   0.3384475  -0.3384475   0.0833427), wk =   0.0046296
        k(  269) = (   0.3384475  -0.3384475   0.1666854), wk =   0.0046296
        k(  270) = (   0.3384475  -0.3384475   0.2500281), wk =   0.0046296
        k(  271) = (   0.3384475  -0.3384475   0.3333708), wk =   0.0046296
        k(  272) = (   0.3384475  -0.3384475   0.4167135), wk =   0.0046296
        k(  273) = (   0.3384475  -0.3384475  -0.5000562), wk =   0.0023148
        k(  274) = (   0.4105552   0.4105552   0.0000000), wk =   0.0023148
        k(  275) = (   0.4105552   0.4105552   0.0833427), wk =   0.0046296
        k(  276) = (   0.4105552   0.4105552   0.1666854), wk =   0.0046296
        k(  277) = (   0.4105552   0.4105552   0.2500281), wk =   0.0046296
        k(  278) = (   0.4105552   0.4105552   0.3333708), wk =   0.0046296
        k(  279) = (   0.4105552   0.4105552   0.4167135), wk =   0.0046296
        k(  280) = (   0.4105552   0.4105552  -0.5000562), wk =   0.0023148
        k(  281) = (   0.4243099  -0.5064209   0.0000000), wk =   0.0046296
        k(  282) = (   0.4243099  -0.5064209   0.0833427), wk =   0.0092593
        k(  283) = (   0.4243099  -0.5064209   0.1666854), wk =   0.0092593
        k(  284) = (   0.4243099  -0.5064209   0.2500281), wk =   0.0092593
        k(  285) = (   0.4243099  -0.5064209   0.3333708), wk =   0.0092593
        k(  286) = (   0.4243099  -0.5064209   0.4167135), wk =   0.0092593
        k(  287) = (   0.4243099  -0.5064209  -0.5000562), wk =   0.0046296
        k(  288) = (   0.4230594  -0.4230594   0.0000000), wk =   0.0023148
        k(  289) = (   0.4230594  -0.4230594   0.0833427), wk =   0.0046296
        k(  290) = (   0.4230594  -0.4230594   0.1666854), wk =   0.0046296
        k(  291) = (   0.4230594  -0.4230594   0.2500281), wk =   0.0046296
        k(  292) = (   0.4230594  -0.4230594   0.3333708), wk =   0.0046296
        k(  293) = (   0.4230594  -0.4230594   0.4167135), wk =   0.0046296
        k(  294) = (   0.4230594  -0.4230594  -0.5000562), wk =   0.0023148
        k(  295) = (  -0.4926663  -0.4926663   0.0000000), wk =   0.0011574
        k(  296) = (  -0.4926663  -0.4926663   0.0833427), wk =   0.0023148
        k(  297) = (  -0.4926663  -0.4926663   0.1666854), wk =   0.0023148
        k(  298) = (  -0.4926663  -0.4926663   0.2500281), wk =   0.0023148
        k(  299) = (  -0.4926663  -0.4926663   0.3333708), wk =   0.0023148
        k(  300) = (  -0.4926663  -0.4926663   0.4167135), wk =   0.0023148
        k(  301) = (  -0.4926663  -0.4926663  -0.5000562), wk =   0.0011574

                       cryst. coord.
        k(    1) = (   0.0000000   0.0000000   0.0000000), wk =   0.0011574
        k(    2) = (   0.0000000   0.0000000   0.0833333), wk =   0.0023148
        k(    3) = (   0.0000000   0.0000000   0.1666667), wk =   0.0023148
        k(    4) = (   0.0000000   0.0000000   0.2500000), wk =   0.0023148
        k(    5) = (   0.0000000   0.0000000   0.3333333), wk =   0.0023148
        k(    6) = (   0.0000000   0.0000000   0.4166667), wk =   0.0023148
        k(    7) = (   0.0000000   0.0000000  -0.5000000), wk =   0.0011574
        k(    8) = (  -0.0000000   0.0833333   0.0000000), wk =   0.0046296
        k(    9) = (  -0.0000000   0.0833333   0.0833333), wk =   0.0092593
        k(   10) = (  -0.0000000   0.0833333   0.1666667), wk =   0.0092593
        k(   11) = (  -0.0000000   0.0833333   0.2500000), wk =   0.0092593
        k(   12) = (  -0.0000000   0.0833333   0.3333333), wk =   0.0092593
        k(   13) = (  -0.0000000   0.0833333   0.4166667), wk =   0.0092593
        k(   14) = (  -0.0000000   0.0833333  -0.5000000), wk =   0.0046296
        k(   15) = (  -0.0000000   0.1666667   0.0000000), wk =   0.0046296
        k(   16) = (  -0.0000000   0.1666667   0.0833333), wk =   0.0092593
        k(   17) = (  -0.0000000   0.1666667   0.1666667), wk =   0.0092593
        k(   18) = (  -0.0000000   0.1666667   0.2500000), wk =   0.0092593
        k(   19) = (  -0.0000000   0.1666667   0.3333333), wk =   0.0092593
        k(   20) = (  -0.0000000   0.1666667   0.4166667), wk =   0.0092593
        k(   21) = (  -0.0000000   0.1666667  -0.5000000), wk =   0.0046296
        k(   22) = (   0.0000000   0.2500000   0.0000000), wk =   0.0046296
        k(   23) = (   0.0000000   0.2500000   0.0833333), wk =   0.0092593
        k(   24) = (   0.0000000   0.2500000   0.1666667), wk =   0.0092593
        k(   25) = (   0.0000000   0.2500000   0.2500000), wk =   0.0092593
        k(   26) = (   0.0000000   0.2500000   0.3333333), wk =   0.0092593
        k(   27) = (   0.0000000   0.2500000   0.4166667), wk =   0.0092593
        k(   28) = (   0.0000000   0.2500000  -0.5000000), wk =   0.0046296
        k(   29) = (  -0.0000000   0.3333333   0.0000000), wk =   0.0046296
        k(   30) = (  -0.0000000   0.3333333   0.0833333), wk =   0.0092593
        k(   31) = (  -0.0000000   0.3333333   0.1666667), wk =   0.0092593
        k(   32) = (  -0.0000000   0.3333333   0.2500000), wk =   0.0092593
        k(   33) = (  -0.0000000   0.3333333   0.3333333), wk =   0.0092593
        k(   34) = (  -0.0000000   0.3333333   0.4166667), wk =   0.0092593
        k(   35) = (  -0.0000000   0.3333333  -0.5000000), wk =   0.0046296
        k(   36) = (   0.0000000   0.4166667   0.0000000), wk =   0.0046296
        k(   37) = (   0.0000000   0.4166667   0.0833333), wk =   0.0092593
        k(   38) = (   0.0000000   0.4166667   0.1666667), wk =   0.0092593
        k(   39) = (   0.0000000   0.4166667   0.2500000), wk =   0.0092593
        k(   40) = (   0.0000000   0.4166667   0.3333333), wk =   0.0092593
        k(   41) = (   0.0000000   0.4166667   0.4166667), wk =   0.0092593
        k(   42) = (   0.0000000   0.4166667  -0.5000000), wk =   0.0046296
        k(   43) = (   0.0000000  -0.5000000   0.0000000), wk =   0.0023148
        k(   44) = (   0.0000000  -0.5000000   0.0833333), wk =   0.0046296
        k(   45) = (   0.0000000  -0.5000000   0.1666667), wk =   0.0046296
        k(   46) = (   0.0000000  -0.5000000   0.2500000), wk =   0.0046296
        k(   47) = (   0.0000000  -0.5000000   0.3333333), wk =   0.0046296
        k(   48) = (   0.0000000  -0.5000000   0.4166667), wk =   0.0046296
        k(   49) = (   0.0000000  -0.5000000  -0.5000000), wk =   0.0023148
        k(   50) = (   0.0833333   0.0833333   0.0000000), wk =   0.0023148
        k(   51) = (   0.0833333   0.0833333   0.0833333), wk =   0.0046296
        k(   52) = (   0.0833333   0.0833333   0.1666667), wk =   0.0046296
        k(   53) = (   0.0833333   0.0833333   0.2500000), wk =   0.0046296
        k(   54) = (   0.0833333   0.0833333   0.3333333), wk =   0.0046296
        k(   55) = (   0.0833333   0.0833333   0.4166667), wk =   0.0046296
        k(   56) = (   0.0833333   0.0833333  -0.5000000), wk =   0.0023148
        k(   57) = (   0.0833333   0.1666667   0.0000000), wk =   0.0046296
        k(   58) = (   0.0833333   0.1666667   0.0833333), wk =   0.0092593
        k(   59) = (   0.0833333   0.1666667   0.1666667), wk =   0.0092593
        k(   60) = (   0.0833333   0.1666667   0.2500000), wk =   0.0092593
        k(   61) = (   0.0833333   0.1666667   0.3333333), wk =   0.0092593
        k(   62) = (   0.0833333   0.1666667   0.4166667), wk =   0.0092593
        k(   63) = (   0.0833333   0.1666667  -0.5000000), wk =   0.0046296
        k(   64) = (   0.0833333   0.2500000   0.0000000), wk =   0.0046296
        k(   65) = (   0.0833333   0.2500000   0.0833333), wk =   0.0092593
        k(   66) = (   0.0833333   0.2500000   0.1666667), wk =   0.0092593
        k(   67) = (   0.0833333   0.2500000   0.2500000), wk =   0.0092593
        k(   68) = (   0.0833333   0.2500000   0.3333333), wk =   0.0092593
        k(   69) = (   0.0833333   0.2500000   0.4166667), wk =   0.0092593
        k(   70) = (   0.0833333   0.2500000  -0.5000000), wk =   0.0046296
        k(   71) = (   0.0833333   0.3333333   0.0000000), wk =   0.0046296
        k(   72) = (   0.0833333   0.3333333   0.0833333), wk =   0.0092593
        k(   73) = (   0.0833333   0.3333333   0.1666667), wk =   0.0092593
        k(   74) = (   0.0833333   0.3333333   0.2500000), wk =   0.0092593
        k(   75) = (   0.0833333   0.3333333   0.3333333), wk =   0.0092593
        k(   76) = (   0.0833333   0.3333333   0.4166667), wk =   0.0092593
        k(   77) = (   0.0833333   0.3333333  -0.5000000), wk =   0.0046296
        k(   78) = (   0.0833333   0.4166667   0.0000000), wk =   0.0046296
        k(   79) = (   0.0833333   0.4166667   0.0833333), wk =   0.0092593
        k(   80) = (   0.0833333   0.4166667   0.1666667), wk =   0.0092593
        k(   81) = (   0.0833333   0.4166667   0.2500000), wk =   0.0092593
        k(   82) = (   0.0833333   0.4166667   0.3333333), wk =   0.0092593
        k(   83) = (   0.0833333   0.4166667   0.4166667), wk =   0.0092593
        k(   84) = (   0.0833333   0.4166667  -0.5000000), wk =   0.0046296
        k(   85) = (   0.0833333  -0.5000000   0.0000000), wk =   0.0046296
        k(   86) = (   0.0833333  -0.5000000   0.0833333), wk =   0.0092593
        k(   87) = (   0.0833333  -0.5000000   0.1666667), wk =   0.0092593
        k(   88) = (   0.0833333  -0.5000000   0.2500000), wk =   0.0092593
        k(   89) = (   0.0833333  -0.5000000   0.3333333), wk =   0.0092593
        k(   90) = (   0.0833333  -0.5000000   0.4166667), wk =   0.0092593
        k(   91) = (   0.0833333  -0.5000000  -0.5000000), wk =   0.0046296
        k(   92) = (   0.0833333  -0.4166667   0.0000000), wk =   0.0046296
        k(   93) = (   0.0833333  -0.4166667   0.0833333), wk =   0.0092593
        k(   94) = (   0.0833333  -0.4166667   0.1666667), wk =   0.0092593
        k(   95) = (   0.0833333  -0.4166667   0.2500000), wk =   0.0092593
        k(   96) = (   0.0833333  -0.4166667   0.3333333), wk =   0.0092593
        k(   97) = (   0.0833333  -0.4166667   0.4166667), wk =   0.0092593
        k(   98) = (   0.0833333  -0.4166667  -0.5000000), wk =   0.0046296
        k(   99) = (   0.0833333  -0.3333333   0.0000000), wk =   0.0046296
        k(  100) = (   0.0833333  -0.3333333   0.0833333), wk =   0.0092593
        k(  101) = (   0.0833333  -0.3333333   0.1666667), wk =   0.0092593
        k(  102) = (   0.0833333  -0.3333333   0.2500000), wk =   0.0092593
        k(  103) = (   0.0833333  -0.3333333   0.3333333), wk =   0.0092593
        k(  104) = (   0.0833333  -0.3333333   0.4166667), wk =   0.0092593
        k(  105) = (   0.0833333  -0.3333333  -0.5000000), wk =   0.0046296
        k(  106) = (   0.0833333  -0.2500000   0.0000000), wk =   0.0046296
        k(  107) = (   0.0833333  -0.2500000   0.0833333), wk =   0.0092593
        k(  108) = (   0.0833333  -0.2500000   0.1666667), wk =   0.0092593
        k(  109) = (   0.0833333  -0.2500000   0.2500000), wk =   0.0092593
        k(  110) = (   0.0833333  -0.2500000   0.3333333), wk =   0.0092593
        k(  111) = (   0.0833333  -0.2500000   0.4166667), wk =   0.0092593
        k(  112) = (   0.0833333  -0.2500000  -0.5000000), wk =   0.0046296
        k(  113) = (   0.0833333  -0.1666667   0.0000000), wk =   0.0046296
        k(  114) = (   0.0833333  -0.1666667   0.0833333), wk =   0.0092593
        k(  115) = (   0.0833333  -0.1666667   0.1666667), wk =   0.0092593
        k(  116) = (   0.0833333  -0.1666667   0.2500000), wk =   0.0092593
        k(  117) = (   0.0833333  -0.1666667   0.3333333), wk =   0.0092593
        k(  118) = (   0.0833333  -0.1666667   0.4166667), wk =   0.0092593
        k(  119) = (   0.0833333  -0.1666667  -0.5000000), wk =   0.0046296
        k(  120) = (   0.0833333  -0.0833333   0.0000000), wk =   0.0023148
        k(  121) = (   0.0833333  -0.0833333   0.0833333), wk =   0.0046296
        k(  122) = (   0.0833333  -0.0833333   0.1666667), wk =   0.0046296
        k(  123) = (   0.0833333  -0.0833333   0.2500000), wk =   0.0046296
        k(  124) = (   0.0833333  -0.0833333   0.3333333), wk =   0.0046296
        k(  125) = (   0.0833333  -0.0833333   0.4166667), wk =   0.0046296
        k(  126) = (   0.0833333  -0.0833333  -0.5000000), wk =   0.0023148
        k(  127) = (   0.1666667   0.1666667   0.0000000), wk =   0.0023148
        k(  128) = (   0.1666667   0.1666667   0.0833333), wk =   0.0046296
        k(  129) = (   0.1666667   0.1666667   0.1666667), wk =   0.0046296
        k(  130) = (   0.1666667   0.1666667   0.2500000), wk =   0.0046296
        k(  131) = (   0.1666667   0.1666667   0.3333333), wk =   0.0046296
        k(  132) = (   0.1666667   0.1666667   0.4166667), wk =   0.0046296
        k(  133) = (   0.1666667   0.1666667  -0.5000000), wk =   0.0023148
        k(  134) = (   0.1666667   0.2500000   0.0000000), wk =   0.0046296
        k(  135) = (   0.1666667   0.2500000   0.0833333), wk =   0.0092593
        k(  136) = (   0.1666667   0.2500000   0.1666667), wk =   0.0092593
        k(  137) = (   0.1666667   0.2500000   0.2500000), wk =   0.0092593
        k(  138) = (   0.1666667   0.2500000   0.3333333), wk =   0.0092593
        k(  139) = (   0.1666667   0.2500000   0.4166667), wk =   0.0092593
        k(  140) = (   0.1666667   0.2500000  -0.5000000), wk =   0.0046296
        k(  141) = (   0.1666667   0.3333333   0.0000000), wk =   0.0046296
        k(  142) = (   0.1666667   0.3333333   0.0833333), wk =   0.0092593
        k(  143) = (   0.1666667   0.3333333   0.1666667), wk =   0.0092593
        k(  144) = (   0.1666667   0.3333333   0.2500000), wk =   0.0092593
        k(  145) = (   0.1666667   0.3333333   0.3333333), wk =   0.0092593
        k(  146) = (   0.1666667   0.3333333   0.4166667), wk =   0.0092593
        k(  147) = (   0.1666667   0.3333333  -0.5000000), wk =   0.0046296
        k(  148) = (   0.1666667   0.4166667   0.0000000), wk =   0.0046296
        k(  149) = (   0.1666667   0.4166667   0.0833333), wk =   0.0092593
        k(  150) = (   0.1666667   0.4166667   0.1666667), wk =   0.0092593
        k(  151) = (   0.1666667   0.4166667   0.2500000), wk =   0.0092593
        k(  152) = (   0.1666667   0.4166667   0.3333333), wk =   0.0092593
        k(  153) = (   0.1666667   0.4166667   0.4166667), wk =   0.0092593
        k(  154) = (   0.1666667   0.4166667  -0.5000000), wk =   0.0046296
        k(  155) = (   0.1666667  -0.5000000   0.0000000), wk =   0.0046296
        k(  156) = (   0.1666667  -0.5000000   0.0833333), wk =   0.0092593
        k(  157) = (   0.1666667  -0.5000000   0.1666667), wk =   0.0092593
        k(  158) = (   0.1666667  -0.5000000   0.2500000), wk =   0.0092593
        k(  159) = (   0.1666667  -0.5000000   0.3333333), wk =   0.0092593
        k(  160) = (   0.1666667  -0.5000000   0.4166667), wk =   0.0092593
        k(  161) = (   0.1666667  -0.5000000  -0.5000000), wk =   0.0046296
        k(  162) = (   0.1666667  -0.4166667   0.0000000), wk =   0.0046296
        k(  163) = (   0.1666667  -0.4166667   0.0833333), wk =   0.0092593
        k(  164) = (   0.1666667  -0.4166667   0.1666667), wk =   0.0092593
        k(  165) = (   0.1666667  -0.4166667   0.2500000), wk =   0.0092593
        k(  166) = (   0.1666667  -0.4166667   0.3333333), wk =   0.0092593
        k(  167) = (   0.1666667  -0.4166667   0.4166667), wk =   0.0092593
        k(  168) = (   0.1666667  -0.4166667  -0.5000000), wk =   0.0046296
        k(  169) = (   0.1666667  -0.3333333   0.0000000), wk =   0.0046296
        k(  170) = (   0.1666667  -0.3333333   0.0833333), wk =   0.0092593
        k(  171) = (   0.1666667  -0.3333333   0.1666667), wk =   0.0092593
        k(  172) = (   0.1666667  -0.3333333   0.2500000), wk =   0.0092593
        k(  173) = (   0.1666667  -0.3333333   0.3333333), wk =   0.0092593
        k(  174) = (   0.1666667  -0.3333333   0.4166667), wk =   0.0092593
        k(  175) = (   0.1666667  -0.3333333  -0.5000000), wk =   0.0046296
        k(  176) = (   0.1666667  -0.2500000   0.0000000), wk =   0.0046296
        k(  177) = (   0.1666667  -0.2500000   0.0833333), wk =   0.0092593
        k(  178) = (   0.1666667  -0.2500000   0.1666667), wk =   0.0092593
        k(  179) = (   0.1666667  -0.2500000   0.2500000), wk =   0.0092593
        k(  180) = (   0.1666667  -0.2500000   0.3333333), wk =   0.0092593
        k(  181) = (   0.1666667  -0.2500000   0.4166667), wk =   0.0092593
        k(  182) = (   0.1666667  -0.2500000  -0.5000000), wk =   0.0046296
        k(  183) = (   0.1666667  -0.1666667   0.0000000), wk =   0.0023148
        k(  184) = (   0.1666667  -0.1666667   0.0833333), wk =   0.0046296
        k(  185) = (   0.1666667  -0.1666667   0.1666667), wk =   0.0046296
        k(  186) = (   0.1666667  -0.1666667   0.2500000), wk =   0.0046296
        k(  187) = (   0.1666667  -0.1666667   0.3333333), wk =   0.0046296
        k(  188) = (   0.1666667  -0.1666667   0.4166667), wk =   0.0046296
        k(  189) = (   0.1666667  -0.1666667  -0.5000000), wk =   0.0023148
        k(  190) = (   0.2500000   0.2500000   0.0000000), wk =   0.0023148
        k(  191) = (   0.2500000   0.2500000   0.0833333), wk =   0.0046296
        k(  192) = (   0.2500000   0.2500000   0.1666667), wk =   0.0046296
        k(  193) = (   0.2500000   0.2500000   0.2500000), wk =   0.0046296
        k(  194) = (   0.2500000   0.2500000   0.3333333), wk =   0.0046296
        k(  195) = (   0.2500000   0.2500000   0.4166667), wk =   0.0046296
        k(  196) = (   0.2500000   0.2500000  -0.5000000), wk =   0.0023148
        k(  197) = (   0.2500000   0.3333333   0.0000000), wk =   0.0046296
        k(  198) = (   0.2500000   0.3333333   0.0833333), wk =   0.0092593
        k(  199) = (   0.2500000   0.3333333   0.1666667), wk =   0.0092593
        k(  200) = (   0.2500000   0.3333333   0.2500000), wk =   0.0092593
        k(  201) = (   0.2500000   0.3333333   0.3333333), wk =   0.0092593
        k(  202) = (   0.2500000   0.3333333   0.4166667), wk =   0.0092593
        k(  203) = (   0.2500000   0.3333333  -0.5000000), wk =   0.0046296
        k(  204) = (   0.2500000   0.4166667   0.0000000), wk =   0.0046296
        k(  205) = (   0.2500000   0.4166667   0.0833333), wk =   0.0092593
        k(  206) = (   0.2500000   0.4166667   0.1666667), wk =   0.0092593
        k(  207) = (   0.2500000   0.4166667   0.2500000), wk =   0.0092593
        k(  208) = (   0.2500000   0.4166667   0.3333333), wk =   0.0092593
        k(  209) = (   0.2500000   0.4166667   0.4166667), wk =   0.0092593
        k(  210) = (   0.2500000   0.4166667  -0.5000000), wk =   0.0046296
        k(  211) = (   0.2500000  -0.5000000   0.0000000), wk =   0.0046296
        k(  212) = (   0.2500000  -0.5000000   0.0833333), wk =   0.0092593
        k(  213) = (   0.2500000  -0.5000000   0.1666667), wk =   0.0092593
        k(  214) = (   0.2500000  -0.5000000   0.2500000), wk =   0.0092593
        k(  215) = (   0.2500000  -0.5000000   0.3333333), wk =   0.0092593
        k(  216) = (   0.2500000  -0.5000000   0.4166667), wk =   0.0092593
        k(  217) = (   0.2500000  -0.5000000  -0.5000000), wk =   0.0046296
        k(  218) = (   0.2500000  -0.4166667   0.0000000), wk =   0.0046296
        k(  219) = (   0.2500000  -0.4166667   0.0833333), wk =   0.0092593
        k(  220) = (   0.2500000  -0.4166667   0.1666667), wk =   0.0092593
        k(  221) = (   0.2500000  -0.4166667   0.2500000), wk =   0.0092593
        k(  222) = (   0.2500000  -0.4166667   0.3333333), wk =   0.0092593
        k(  223) = (   0.2500000  -0.4166667   0.4166667), wk =   0.0092593
        k(  224) = (   0.2500000  -0.4166667  -0.5000000), wk =   0.0046296
        k(  225) = (   0.2500000  -0.3333333   0.0000000), wk =   0.0046296
        k(  226) = (   0.2500000  -0.3333333   0.0833333), wk =   0.0092593
        k(  227) = (   0.2500000  -0.3333333   0.1666667), wk =   0.0092593
        k(  228) = (   0.2500000  -0.3333333   0.2500000), wk =   0.0092593
        k(  229) = (   0.2500000  -0.3333333   0.3333333), wk =   0.0092593
        k(  230) = (   0.2500000  -0.3333333   0.4166667), wk =   0.0092593
        k(  231) = (   0.2500000  -0.3333333  -0.5000000), wk =   0.0046296
        k(  232) = (   0.2500000  -0.2500000   0.0000000), wk =   0.0023148
        k(  233) = (   0.2500000  -0.2500000   0.0833333), wk =   0.0046296
        k(  234) = (   0.2500000  -0.2500000   0.1666667), wk =   0.0046296
        k(  235) = (   0.2500000  -0.2500000   0.2500000), wk =   0.0046296
        k(  236) = (   0.2500000  -0.2500000   0.3333333), wk =   0.0046296
        k(  237) = (   0.2500000  -0.2500000   0.4166667), wk =   0.0046296
        k(  238) = (   0.2500000  -0.2500000  -0.5000000), wk =   0.0023148
        k(  239) = (   0.3333333   0.3333333   0.0000000), wk =   0.0023148
        k(  240) = (   0.3333333   0.3333333   0.0833333), wk =   0.0046296
        k(  241) = (   0.3333333   0.3333333   0.1666667), wk =   0.0046296
        k(  242) = (   0.3333333   0.3333333   0.2500000), wk =   0.0046296
        k(  243) = (   0.3333333   0.3333333   0.3333333), wk =   0.0046296
        k(  244) = (   0.3333333   0.3333333   0.4166667), wk =   0.0046296
        k(  245) = (   0.3333333   0.3333333  -0.5000000), wk =   0.0023148
        k(  246) = (   0.3333333   0.4166667   0.0000000), wk =   0.0046296
        k(  247) = (   0.3333333   0.4166667   0.0833333), wk =   0.0092593
        k(  248) = (   0.3333333   0.4166667   0.1666667), wk =   0.0092593
        k(  249) = (   0.3333333   0.4166667   0.2500000), wk =   0.0092593
        k(  250) = (   0.3333333   0.4166667   0.3333333), wk =   0.0092593
        k(  251) = (   0.3333333   0.4166667   0.4166667), wk =   0.0092593
        k(  252) = (   0.3333333   0.4166667  -0.5000000), wk =   0.0046296
        k(  253) = (   0.3333333  -0.5000000   0.0000000), wk =   0.0046296
        k(  254) = (   0.3333333  -0.5000000   0.0833333), wk =   0.0092593
        k(  255) = (   0.3333333  -0.5000000   0.1666667), wk =   0.0092593
        k(  256) = (   0.3333333  -0.5000000   0.2500000), wk =   0.0092593
        k(  257) = (   0.3333333  -0.5000000   0.3333333), wk =   0.0092593
        k(  258) = (   0.3333333  -0.5000000   0.4166667), wk =   0.0092593
        k(  259) = (   0.3333333  -0.5000000  -0.5000000), wk =   0.0046296
        k(  260) = (   0.3333333  -0.4166667   0.0000000), wk =   0.0046296
        k(  261) = (   0.3333333  -0.4166667   0.0833333), wk =   0.0092593
        k(  262) = (   0.3333333  -0.4166667   0.1666667), wk =   0.0092593
        k(  263) = (   0.3333333  -0.4166667   0.2500000), wk =   0.0092593
        k(  264) = (   0.3333333  -0.4166667   0.3333333), wk =   0.0092593
        k(  265) = (   0.3333333  -0.4166667   0.4166667), wk =   0.0092593
        k(  266) = (   0.3333333  -0.4166667  -0.5000000), wk =   0.0046296
        k(  267) = (   0.3333333  -0.3333333   0.0000000), wk =   0.0023148
        k(  268) = (   0.3333333  -0.3333333   0.0833333), wk =   0.0046296
        k(  269) = (   0.3333333  -0.3333333   0.1666667), wk =   0.0046296
        k(  270) = (   0.3333333  -0.3333333   0.2500000), wk =   0.0046296
        k(  271) = (   0.3333333  -0.3333333   0.3333333), wk =   0.0046296
        k(  272) = (   0.3333333  -0.3333333   0.4166667), wk =   0.0046296
        k(  273) = (   0.3333333  -0.3333333  -0.5000000), wk =   0.0023148
        k(  274) = (   0.4166667   0.4166667   0.0000000), wk =   0.0023148
        k(  275) = (   0.4166667   0.4166667   0.0833333), wk =   0.0046296
        k(  276) = (   0.4166667   0.4166667   0.1666667), wk =   0.0046296
        k(  277) = (   0.4166667   0.4166667   0.2500000), wk =   0.0046296
        k(  278) = (   0.4166667   0.4166667   0.3333333), wk =   0.0046296
        k(  279) = (   0.4166667   0.4166667   0.4166667), wk =   0.0046296
        k(  280) = (   0.4166667   0.4166667  -0.5000000), wk =   0.0023148
        k(  281) = (   0.4166667  -0.5000000   0.0000000), wk =   0.0046296
        k(  282) = (   0.4166667  -0.5000000   0.0833333), wk =   0.0092593
        k(  283) = (   0.4166667  -0.5000000   0.1666667), wk =   0.0092593
        k(  284) = (   0.4166667  -0.5000000   0.2500000), wk =   0.0092593
        k(  285) = (   0.4166667  -0.5000000   0.3333333), wk =   0.0092593
        k(  286) = (   0.4166667  -0.5000000   0.4166667), wk =   0.0092593
        k(  287) = (   0.4166667  -0.5000000  -0.5000000), wk =   0.0046296
        k(  288) = (   0.4166667  -0.4166667   0.0000000), wk =   0.0023148
        k(  289) = (   0.4166667  -0.4166667   0.0833333), wk =   0.0046296
        k(  290) = (   0.4166667  -0.4166667   0.1666667), wk =   0.0046296
        k(  291) = (   0.4166667  -0.4166667   0.2500000), wk =   0.0046296
        k(  292) = (   0.4166667  -0.4166667   0.3333333), wk =   0.0046296
        k(  293) = (   0.4166667  -0.4166667   0.4166667), wk =   0.0046296
        k(  294) = (   0.4166667  -0.4166667  -0.5000000), wk =   0.0023148
        k(  295) = (  -0.5000000  -0.5000000   0.0000000), wk =   0.0011574
        k(  296) = (  -0.5000000  -0.5000000   0.0833333), wk =   0.0023148
        k(  297) = (  -0.5000000  -0.5000000   0.1666667), wk =   0.0023148
        k(  298) = (  -0.5000000  -0.5000000   0.2500000), wk =   0.0023148
        k(  299) = (  -0.5000000  -0.5000000   0.3333333), wk =   0.0023148
        k(  300) = (  -0.5000000  -0.5000000   0.4166667), wk =   0.0023148
        k(  301) = (  -0.5000000  -0.5000000  -0.5000000), wk =   0.0011574

     Dense  grid:    17773 G-vectors     FFT dimensions: (  36,  36,  36)

     Smooth grid:     6321 G-vectors     FFT dimensions: (  24,  24,  24)

     Dynamical RAM for                 wfc:       0.20 MB

     Dynamical RAM for     wfc (w. buffer):      61.57 MB

     Dynamical RAM for           str. fact:       0.54 MB

     Dynamical RAM for           local pot:       0.00 MB

     Dynamical RAM for          nlocal pot:       0.31 MB

     Dynamical RAM for                qrad:       3.21 MB

     Dynamical RAM for          rho,v,vnew:       1.88 MB

     Dynamical RAM for               rhoin:       0.63 MB

     Dynamical RAM for            rho*nmix:       4.34 MB

     Dynamical RAM for           G-vectors:       1.07 MB

     Dynamical RAM for          h,s,v(r/c):       0.05 MB

     Dynamical RAM for          <psi|beta>:       0.01 MB

     Dynamical RAM for                 psi:       0.41 MB

     Dynamical RAM for                hpsi:       0.41 MB

     Dynamical RAM for                spsi:       0.41 MB

     Dynamical RAM for      wfcinit/wfcrot:       0.41 MB

     Dynamical RAM for           addusdens:      50.71 MB

     Dynamical RAM for          addusforce:      50.85 MB

     Dynamical RAM for         addusstress:      54.51 MB

     Estimated static dynamical RAM per process >      71.81 MB

     Estimated max dynamical RAM per process >     130.66 MB

     Check: negative core charge=   -0.000003

     Initial potential from superposition of free atoms

     starting charge      25.9999, renormalised to      26.0000
     Starting wfcs are   17 randomized atomic wfcs
     Checking if some PAW data can be deallocated... 

     total cpu time spent up to now is        3.5 secs

     Self-consistent Calculation

     iteration #  1     ecut=    50.00 Ry     beta= 0.40
     Davidson diagonalization with overlap

---- Real-time Memory Report at c_bands before calling an iterative solver
           112 MiB given to the printing process from OS
             0 MiB allocation reported by mallinfo(arena+hblkhd)
          4855 MiB available memory on the node where the printing process lives
------------------
     ethr =  1.00E-02,  avg # of iterations =  2.9

     total cpu time spent up to now is       14.7 secs

     WARNING: integrated charge=    26.00001130, expected=    26.00000000

     total energy              =    -503.04027995 Ry
     estimated scf accuracy    <       0.46820856 Ry

     iteration #  2     ecut=    50.00 Ry     beta= 0.40
     Davidson diagonalization with overlap

---- Real-time Memory Report at c_bands before calling an iterative solver
           173 MiB given to the printing process from OS
             0 MiB allocation reported by mallinfo(arena+hblkhd)
          4830 MiB available memory on the node where the printing process lives
------------------
     ethr =  1.80E-03,  avg # of iterations =  2.1
     Minimization algorithm failed to find Fermi energy: reverting to bisection
     Possible cause: smearing is larger than the electronic band-gap.

     total cpu time spent up to now is       25.4 secs

     WARNING: integrated charge=    26.00000799, expected=    26.00000000

     total energy              =    -503.16718954 Ry
     estimated scf accuracy    <       0.07945723 Ry

     iteration #  3     ecut=    50.00 Ry     beta= 0.40
     Davidson diagonalization with overlap

---- Real-time Memory Report at c_bands before calling an iterative solver
           174 MiB given to the printing process from OS
             0 MiB allocation reported by mallinfo(arena+hblkhd)
          4894 MiB available memory on the node where the printing process lives
------------------
     ethr =  3.06E-04,  avg # of iterations =  2.2

     total cpu time spent up to now is       37.4 secs

     WARNING: integrated charge=    26.00480643, expected=    26.00000000

     total energy              =    -503.17155087 Ry
     estimated scf accuracy    <       0.00499974 Ry

     iteration #  4     ecut=    50.00 Ry     beta= 0.40
     Davidson diagonalization with overlap

---- Real-time Memory Report at c_bands before calling an iterative solver
           174 MiB given to the printing process from OS
             0 MiB allocation reported by mallinfo(arena+hblkhd)
          4890 MiB available memory on the node where the printing process lives
------------------
     ethr =  1.92E-05,  avg # of iterations =  2.1

     total cpu time spent up to now is       48.4 secs

     WARNING: integrated charge=    26.00802044, expected=    26.00000000

     total energy              =    -503.17156660 Ry
     estimated scf accuracy    <       0.00066991 Ry

     iteration #  5     ecut=    50.00 Ry     beta= 0.40
     Davidson diagonalization with overlap

---- Real-time Memory Report at c_bands before calling an iterative solver
           174 MiB given to the printing process from OS
             0 MiB allocation reported by mallinfo(arena+hblkhd)
          4892 MiB available memory on the node where the printing process lives
------------------
     ethr =  2.58E-06,  avg # of iterations =  2.4

     total cpu time spent up to now is       58.3 secs

     WARNING: integrated charge=    26.00852898, expected=    26.00000000

     total energy              =    -503.17159239 Ry
     estimated scf accuracy    <       0.00000759 Ry

     iteration #  6     ecut=    50.00 Ry     beta= 0.40
     Davidson diagonalization with overlap

---- Real-time Memory Report at c_bands before calling an iterative solver
           174 MiB given to the printing process from OS
             0 MiB allocation reported by mallinfo(arena+hblkhd)
          4891 MiB available memory on the node where the printing process lives
------------------
     ethr =  2.92E-08,  avg # of iterations =  2.1

     total cpu time spent up to now is       69.7 secs

     WARNING: integrated charge=    26.00872623, expected=    26.00000000

     total energy              =    -503.17160361 Ry
     estimated scf accuracy    <       0.00000814 Ry

     iteration #  7     ecut=    50.00 Ry     beta= 0.40
     Davidson diagonalization with overlap

---- Real-time Memory Report at c_bands before calling an iterative solver
           175 MiB given to the printing process from OS
             0 MiB allocation reported by mallinfo(arena+hblkhd)
          4892 MiB available memory on the node where the printing process lives
------------------
     ethr =  2.92E-08,  avg # of iterations =  1.8

     total cpu time spent up to now is       85.8 secs

     WARNING: integrated charge=    26.00877882, expected=    26.00000000

     total energy              =    -503.17160169 Ry
     estimated scf accuracy    <       0.00000078 Ry

     iteration #  8     ecut=    50.00 Ry     beta= 0.40
     Davidson diagonalization with overlap

---- Real-time Memory Report at c_bands before calling an iterative solver
           175 MiB given to the printing process from OS
             0 MiB allocation reported by mallinfo(arena+hblkhd)
          4864 MiB available memory on the node where the printing process lives
------------------
     ethr =  2.98E-09,  avg # of iterations =  2.0

     total cpu time spent up to now is      106.8 secs

     WARNING: integrated charge=    26.00876204, expected=    26.00000000

     total energy              =    -503.17160069 Ry
     estimated scf accuracy    <       0.00000004 Ry

     iteration #  9     ecut=    50.00 Ry     beta= 0.40
     Davidson diagonalization with overlap

---- Real-time Memory Report at c_bands before calling an iterative solver
           175 MiB given to the printing process from OS
             0 MiB allocation reported by mallinfo(arena+hblkhd)
          4812 MiB available memory on the node where the printing process lives
------------------
     ethr =  1.36E-10,  avg # of iterations =  2.0

     total cpu time spent up to now is      119.3 secs

     End of self-consistent calculation

          k = 0.0000 0.0000 0.0000 (   773 PWs)   bands (ev):

  -112.3479 -66.5373 -66.5287 -66.5213  -6.0122   5.9443   5.9460   7.0069
     7.0086   7.0110  11.1316  11.2290  11.3344  11.5489  26.4791  26.4897
    29.4818

     occupation numbers 
     1.0000   1.0000   1.0000   1.0000   1.0000   1.0000   1.0000   1.0000
     1.0000   1.0000   1.0000   1.0000   1.0000   1.0000   0.0000   0.0000
     0.0000

          k = 0.0000 0.0000 0.0833 (   773 PWs)   bands (ev):

  -112.3478 -66.5371 -66.5299 -66.5213  -5.9435   5.9547   5.9580   6.9581
     6.9700   7.0092  10.1263  11.2213  11.4089  12.5953  25.8139  26.5902
    29.4175

     occupation numbers 
     1.0000   1.0000   1.0000   1.0000   1.0000   1.0000   1.0000   1.0000
     1.0000   1.0000   1.0000   1.0000   1.0000   1.0405   0.0000   0.0000
     0.0000

          k = 0.0000 0.0000 0.1667 (   775 PWs)   bands (ev):

  -112.3476 -66.5369 -66.5331 -66.5210  -5.7479   5.9424   5.9788   6.8285
     6.8629   7.0155   8.9678  11.4615  11.6098  13.6828  24.4401  26.8932
    29.2164

     occupation numbers 
     1.0000   1.0000   1.0000   1.0000   1.0000   1.0000   1.0000   1.0000
     1.0000   1.0000   1.0000   1.0000   1.0000   0.0000   0.0000   0.0000
     0.0000

          k = 0.0000 0.0000 0.2500 (   793 PWs)   bands (ev):

  -112.3474 -66.5377 -66.5367 -66.5209  -5.4593   5.7145   6.0117   6.6671
     6.7270   7.0235   8.1600  11.7816  11.8802  14.6958  22.8492  27.4011
    28.8854

     occupation numbers 
     1.0000   1.0000   1.0000   1.0000   1.0000   1.0000   1.0000   1.0000
     1.0000   1.0000   1.0000   1.0000   1.0000   0.0000   0.0000   0.0000
     0.0000

          k = 0.0000 0.0000 0.3334 (   784 PWs)   bands (ev):

  -112.3471 -66.5418 -66.5363 -66.5206  -5.1402   5.1821   6.0449   6.5201
     6.6009   7.0310   7.8702  12.0973  12.1489  15.6959  21.2354  28.4595
    28.4968

     occupation numbers 
     1.0000   1.0000   1.0000   1.0000   1.0000   1.0000   1.0000   1.0000
     1.0000   1.0000   1.0000   1.0000   1.0000   0.0000   0.0000   0.0000
     0.0000

          k = 0.0000 0.0000 0.4167 (   792 PWs)   bands (ev):

  -112.3469 -66.5450 -66.5362 -66.5204  -4.8818   4.6543   6.0692   6.4197
     6.5137   7.0366   7.8585  12.3283  12.3461  16.7265  19.7488  28.0497
    28.1830

     occupation numbers 
     1.0000   1.0000   1.0000   1.0000   1.0000   1.0000   1.0000   1.0000
     1.0000   1.0000   1.0000   1.0003   1.0004   0.0000   0.0000   0.0000
     0.0000

          k = 0.0000 0.0000-0.5001 (   800 PWs)   bands (ev):

  -112.3468 -66.5463 -66.5361 -66.5204  -4.7808   4.4438   6.0781   6.3842
     6.4828   7.0388   7.8789  12.4131  12.4186  17.4562  18.8516  27.8969
    28.0627

     occupation numbers 
     1.0000   1.0000   1.0000   1.0000   1.0000   1.0000   1.0000   1.0000
     1.0000   1.0000   1.0000   1.0021   1.0024   0.0000   0.0000   0.0000
     0.0000

          k =-0.0013 0.0834 0.0000 (   772 PWs)   bands (ev):

  -112.3478 -66.5378 -66.5286 -66.5219  -5.9435   5.9533   5.9594   6.9617
     6.9641   7.0121  10.1205  11.3113  11.3228  12.5967  25.8122  26.5814
    29.5963

     occupation numbers 
     1.0000   1.0000   1.0000   1.0000   1.0000   1.0000   1.0000   1.0000
     1.0000   1.0000   1.0000   1.0000   1.0000   1.0410   0.0000   0.0000
     0.0000

          k =-0.0013 0.0834 0.0833 (   774 PWs)   bands (ev):

  -112.3478 -66.5377 -66.5298 -66.5218  -5.8759   5.9635   5.9766   6.9118
     6.9453   6.9905   9.8254  11.0013  11.4061  13.2185  25.6925  26.1553
    29.4809

     occupation numbers 
     1.0000   1.0000   1.0000   1.0000   1.0000   1.0000   1.0000   1.0000
     1.0000   1.0000   1.0000   1.0000   1.0000   0.0200   0.0000   0.0000
     0.0000

          k =-0.0013 0.0834 0.1667 (   781 PWs)   bands (ev):

  -112.3476 -66.5375 -66.5331 -66.5216  -5.6838   5.9605   6.0029   6.7815
     6.8496   6.9883   8.9689  11.0399  11.6045  14.1786  24.4874  26.1815
    29.3401

     occupation numbers 
     1.0000   1.0000   1.0000   1.0000   1.0000   1.0000   1.0000   1.0000
     1.0000   1.0000   1.0000   1.0000   1.0000   0.0000   0.0000   0.0000
     0.0000

          k =-0.0013 0.0834 0.2500 (   788 PWs)   bands (ev):

  -112.3473 -66.5375 -66.5373 -66.5214  -5.4009   5.7577   6.0332   6.6407
     6.7194   6.9978   8.2114  11.3159  11.8718  15.1180  22.8750  26.4378
    29.0119

     occupation numbers 
     1.0000   1.0000   1.0000   1.0000   1.0000   1.0000   1.0000   1.0000
     1.0000   1.0000   1.0000   1.0000   1.0000   0.0000   0.0000   0.0000
     0.0000

          k =-0.0013 0.0834 0.3334 (   794 PWs)   bands (ev):

  -112.3470 -66.5418 -66.5371 -66.5212  -5.0888   5.2583   6.0687   6.5206
     6.6021   7.0077   7.8960  11.6287  12.1381  16.0523  21.2315  26.6952
    28.6082

     occupation numbers 
     1.0000   1.0000   1.0000   1.0000   1.0000   1.0000   1.0000   1.0000
     1.0000   1.0000   1.0000   1.0000   1.0000   0.0000   0.0000   0.0000
     0.0000

          k =-0.0013 0.0834 0.4167 (   794 PWs)   bands (ev):

  -112.3468 -66.5450 -66.5368 -66.5209  -4.8368   4.7576   6.0971   6.4287
     6.5193   7.0152   7.8647  11.8704  12.3341  17.0454  19.7110  26.8419
    28.2887

     occupation numbers 
     1.0000   1.0000   1.0000   1.0000   1.0000   1.0000   1.0000   1.0000
     1.0000   1.0000   1.0000   1.0000   1.0003   0.0000   0.0000   0.0000
     0.0000

          k =-0.0013 0.0834-0.5001 (   802 PWs)   bands (ev):

  -112.3467 -66.5462 -66.5368 -66.5209  -4.7385   4.5563   6.1083   6.3941
     6.4890   7.0180   7.8799  11.9615  12.4063  17.8903  18.6715  26.8763
    28.1689

     occupation numbers 
     1.0000   1.0000   1.0000   1.0000   1.0000   1.0000   1.0000   1.0000
     1.0000   1.0000   1.0000   1.0000   1.0018   0.0000   0.0000   0.0000
     0.0000

          k =-0.0025 0.1667 0.0000 (   780 PWs)   bands (ev):

  -112.3476 -66.5397 -66.5284 -66.5231  -5.7478   5.9437   5.9769   6.8451
     6.8459   7.0180   8.9658  11.5323  11.5392  13.6828  24.4307  26.8805
    29.3592

     occupation numbers 
     1.0000   1.0000   1.0000   1.0000   1.0000   1.0000   1.0000   1.0000
     1.0000   1.0000   1.0000   1.0000   1.0000   0.0000   0.0000   0.0000
     0.0000

          k =-0.0025 0.1667 0.0833 (   781 PWs)   bands (ev):

  -112.3476 -66.5396 -66.5296 -66.5230  -5.6837   5.9615   6.0014   6.7867
     6.8440   6.9901   8.9677  11.0460  11.5984  14.1785  24.4786  26.1809
    29.3401

     occupation numbers 
     1.0000   1.0000   1.0000   1.0000   1.0000   1.0000   1.0000   1.0000
     1.0000   1.0000   1.0000   1.0000   1.0000   0.0000   0.0000   0.0000
     0.0000

          k =-0.0025 0.1667 0.1667 (   785 PWs)   bands (ev):

  -112.3473 -66.5394 -66.5328 -66.5228  -5.5021   5.9581   6.0766   6.6522
     6.8156   6.9413   8.8015  10.4325  11.7536  15.0383  24.5759  24.6875
    29.2976

     occupation numbers 
     1.0000   1.0000   1.0000   1.0000   1.0000   1.0000   1.0000   1.0000
     1.0000   1.0000   1.0000   1.0000   1.0000   0.0000   0.0000   0.0000
     0.0000

          k =-0.0025 0.1667 0.2500 (   788 PWs)   bands (ev):

  -112.3471 -66.5391 -66.5372 -66.5225  -5.2358   5.8272   6.1196   6.5564
     6.7254   6.9337   8.3188  10.3690  11.9631  15.8747  22.9060  24.7989
    29.1762

     occupation numbers 
     1.0000   1.0000   1.0000   1.0000   1.0000   1.0000   1.0000   1.0000
     1.0000   1.0000   1.0000   1.0000   1.0000   0.0000   0.0000   0.0000
     0.0000

          k =-0.0025 0.1667 0.3334 (   788 PWs)   bands (ev):

  -112.3468 -66.5415 -66.5388 -66.5222  -4.9441   5.4536   6.1487   6.5107
     6.6232   6.9459   7.9669  10.6011  12.1712  16.6613  21.2302  24.9926
    28.9823

     occupation numbers 
     1.0000   1.0000   1.0000   1.0000   1.0000   1.0000   1.0000   1.0000
     1.0000   1.0000   1.0000   1.0000   1.0000   0.0000   0.0000   0.0000
     0.0000

          k =-0.0025 0.1667 0.4167 (   793 PWs)   bands (ev):

  -112.3466 -66.5447 -66.5387 -66.5220  -4.7104   5.0483   6.1803   6.4460
     6.5489   6.9576   7.8810  10.8436  12.3235  17.4596  19.7776  25.1444
    28.7992

     occupation numbers 
     1.0000   1.0000   1.0000   1.0000   1.0000   1.0000   1.0000   1.0000
     1.0000   1.0000   1.0000   1.0000   1.0003   0.0000   0.0000   0.0000
     0.0000

          k =-0.0025 0.1667-0.5001 (   794 PWs)   bands (ev):

  -112.3465 -66.5459 -66.5385 -66.5218  -4.6198   4.8791   6.1958   6.4130
     6.5213   6.9622   7.8807  10.9442  12.3795  18.1231  18.8715  25.2028
    28.7247

     occupation numbers 
     1.0000   1.0000   1.0000   1.0000   1.0000   1.0000   1.0000   1.0000
     1.0000   1.0000   1.0000   1.0000   1.0010   0.0000   0.0000   0.0000
     0.0000

          k =-0.0038 0.2501 0.0000 (   788 PWs)   bands (ev):

  -112.3474 -66.5427 -66.5282 -66.5242  -5.4592   5.7156   6.0089   6.6973
     6.6987   7.0261   8.1590  11.8284  11.8307  14.6955  22.8385  27.3744
    28.9384

     occupation numbers 
     1.0000   1.0000   1.0000   1.0000   1.0000   1.0000   1.0000   1.0000
     1.0000   1.0000   1.0000   1.0000   1.0000   0.0000   0.0000   0.0000
     0.0000

          k =-0.0038 0.2501 0.0833 (   785 PWs)   bands (ev):

  -112.3473 -66.5426 -66.5293 -66.5241  -5.4008   5.7588   6.0306   6.6533
     6.7085   6.9998   8.2110  11.3189  11.8662  15.1178  22.8646  26.4351
    28.9576

     occupation numbers 
     1.0000   1.0000   1.0000   1.0000   1.0000   1.0000   1.0000   1.0000
     1.0000   1.0000   1.0000   1.0000   1.0000   0.0000   0.0000   0.0000
     0.0000

          k =-0.0038 0.2501 0.1667 (   789 PWs)   bands (ev):

  -112.3471 -66.5424 -66.5325 -66.5239  -5.2357   5.8278   6.1180   6.5594
     6.7236   6.9343   8.3194  10.3687  11.9612  15.8746  22.8969  24.8038
    29.1440

     occupation numbers 
     1.0000   1.0000   1.0000   1.0000   1.0000   1.0000   1.0000   1.0000
     1.0000   1.0000   1.0000   1.0000   1.0000   0.0000   0.0000   0.0000
     0.0000

          k =-0.0038 0.2501 0.2500 (   785 PWs)   bands (ev):

  -112.3468 -66.5420 -66.5368 -66.5235  -4.9956   5.8069   6.2562   6.4894
     6.7188   6.8744   8.3103   9.6585  12.0892  16.5370  22.4654  23.6730
    29.3641

     occupation numbers 
     1.0000   1.0000   1.0000   1.0000   1.0000   1.0000   1.0000   1.0000
     1.0000   1.0000   1.0000   1.0000   1.0000   0.0000   0.0000   0.0000
     0.0000

          k =-0.0038 0.2501 0.3334 (   785 PWs)   bands (ev):

  -112.3465 -66.5417 -66.5411 -66.5232  -4.7353   5.6607   6.3135   6.4976
     6.6650   6.8672   8.0584   9.5527  12.2157  16.9840  21.2488  23.6470
    29.5258

     occupation numbers 
     1.0000   1.0000   1.0000   1.0000   1.0000   1.0000   1.0000   1.0000
     1.0000   1.0000   1.0000   1.0000   1.0000   0.0000   0.0000   0.0000
     0.0000

          k =-0.0038 0.2501 0.4167 (   787 PWs)   bands (ev):

  -112.3463 -66.5443 -66.5415 -66.5229  -4.5292   5.4561   6.3293   6.4725
     6.6079   6.8808   7.8999   9.7142  12.3078  17.1948  20.3326  23.8037
    29.5995

     occupation numbers 
     1.0000   1.0000   1.0000   1.0000   1.0000   1.0000   1.0000   1.0000
     1.0000   1.0000   1.0000   1.0000   1.0002   0.0000   0.0000   0.0000
     0.0000

          k =-0.0038 0.2501-0.5001 (   790 PWs)   bands (ev):

  -112.3462 -66.5455 -66.5414 -66.5229  -4.4500   5.3574   6.3389   6.4434
     6.5856   6.8875   7.8732   9.8038  12.3414  17.2399  20.0158  23.8790
    29.6279

     occupation numbers 
     1.0000   1.0000   1.0000   1.0000   1.0000   1.0000   1.0000   1.0000
     1.0000   1.0000   1.0000   1.0000   1.0004   0.0000   0.0000   0.0000
     0.0000

          k =-0.0050 0.3334 0.0000 (   794 PWs)   bands (ev):

  -112.3471 -66.5461 -66.5280 -66.5249  -5.1400   5.1833   6.0405   6.5607
     6.5642   7.0342   7.8692  12.1196  12.1214  15.6947  21.2272  27.9822
    28.4716

     occupation numbers 
     1.0000   1.0000   1.0000   1.0000   1.0000   1.0000   1.0000   1.0000
     1.0000   1.0000   1.0000   1.0000   1.0000   0.0000   0.0000   0.0000
     0.0000

          k =-0.0050 0.3334 0.0833 (   786 PWs)   bands (ev):

  -112.3470 -66.5460 -66.5291 -66.5247  -5.0886   5.2595   6.0647   6.5437
     6.5828   7.0104   7.8956  11.6290  12.1327  16.0513  21.2232  26.6899
    28.5374

     occupation numbers 
     1.0000   1.0000   1.0000   1.0000   1.0000   1.0000   1.0000   1.0000
     1.0000   1.0000   1.0000   1.0000   1.0000   0.0000   0.0000   0.0000
     0.0000

          k =-0.0050 0.3334 0.1667 (   784 PWs)   bands (ev):

  -112.3468 -66.5457 -66.5322 -66.5244  -4.9439   5.4546   6.1456   6.5165
     6.6206   6.9471   7.9675  10.6002  12.1678  16.6609  21.2210  24.9952
    28.9239

     occupation numbers 
     1.0000   1.0000   1.0000   1.0000   1.0000   1.0000   1.0000   1.0000
     1.0000   1.0000   1.0000   1.0000   1.0000   0.0000   0.0000   0.0000
     0.0000

          k =-0.0050 0.3334 0.2500 (   780 PWs)   bands (ev):

  -112.3465 -66.5453 -66.5364 -66.5241  -4.7352   5.6612   6.3118   6.4976
     6.6677   6.8666   8.0595   9.5515  12.2141  16.9843  21.2397  23.6526
    29.4792

     occupation numbers 
     1.0000   1.0000   1.0000   1.0000   1.0000   1.0000   1.0000   1.0000
     1.0000   1.0000   1.0000   1.0000   1.0000   0.0000   0.0000   0.0000
     0.0000

          k =-0.0050 0.3334 0.3334 (   783 PWs)   bands (ev):

  -112.3462 -66.5451 -66.5407 -66.5238  -4.5116   5.7794   6.4949   6.5287
     6.6947   6.8084   8.0717   8.8455  12.2587  16.8223  21.2408  23.0013
    29.8945

     occupation numbers 
     1.0000   1.0000   1.0000   1.0000   1.0000   1.0000   1.0000   1.0000
     1.0000   1.0000   1.0000   1.0000   1.0000   0.0000   0.0000   0.0000
     0.0000

          k =-0.0050 0.3334 0.4167 (   786 PWs)   bands (ev):

  -112.3460 -66.5448 -66.5439 -66.5236  -4.3368   5.8320   6.5099   6.6052
     6.6745   6.8076   7.9037   8.7290  12.2903  16.4125  21.1753  22.9546
    29.4453

     occupation numbers 
     1.0000   1.0000   1.0000   1.0000   1.0000   1.0000   1.0000   1.0000
     1.0000   1.0000   1.0000   1.0000   1.0001   0.0000   0.0000   0.0000
     0.0000

          k =-0.0050 0.3334-0.5001 (   790 PWs)   bands (ev):

  -112.3459 -66.5451 -66.5448 -66.5235  -4.2701   5.8507   6.5203   6.5756
     6.6594   6.8159   7.8383   8.7699  12.3017  16.2055  21.1366  23.0236
    29.1879

     occupation numbers 
     1.0000   1.0000   1.0000   1.0000   1.0000   1.0000   1.0000   1.0000
     1.0000   1.0000   1.0000   1.0000   1.0001   0.0000   0.0000   0.0000
     0.0000

          k =-0.0063 0.4168 0.0000 (   797 PWs)   bands (ev):

  -112.3469 -66.5489 -66.5278 -66.5251  -4.8815   4.6558   6.0629   6.4670
     6.4725   7.0402   7.8577  12.3314  12.3361  16.7219  19.7464  28.0064
    28.1072

     occupation numbers 
     1.0000   1.0000   1.0000   1.0000   1.0000   1.0000   1.0000   1.0000
     1.0000   1.0000   1.0000   1.0003   1.0003   0.0000   0.0000   0.0000
     0.0000

          k =-0.0063 0.4168 0.0833 (   792 PWs)   bands (ev):

  -112.3468 -66.5488 -66.5288 -66.5250  -4.8365   4.7589   6.0911   6.4611
     6.4927   7.0184   7.8641  11.8696  12.3282  17.0417  19.7070  26.8367
    28.2090

     occupation numbers 
     1.0000   1.0000   1.0000   1.0000   1.0000   1.0000   1.0000   1.0000
     1.0000   1.0000   1.0000   1.0000   1.0003   0.0000   0.0000   0.0000
     0.0000

          k =-0.0063 0.4168 0.1667 (   791 PWs)   bands (ev):

  -112.3466 -66.5485 -66.5319 -66.5247  -4.7102   5.0495   6.1752   6.4574
     6.5428   6.9594   7.8811  10.8425  12.3190  17.4594  19.7680  25.1458
    28.7216

     occupation numbers 
     1.0000   1.0000   1.0000   1.0000   1.0000   1.0000   1.0000   1.0000
     1.0000   1.0000   1.0000   1.0000   1.0002   0.0000   0.0000   0.0000
     0.0000

          k =-0.0063 0.4168 0.2500 (   786 PWs)   bands (ev):

  -112.3463 -66.5481 -66.5362 -66.5244  -4.5291   5.4568   6.3255   6.4740
     6.6115   6.8807   7.9007   9.7129  12.3050  17.1967  20.3177  23.8114
    29.4672

     occupation numbers 
     1.0000   1.0000   1.0000   1.0000   1.0000   1.0000   1.0000   1.0000
     1.0000   1.0000   1.0000   1.0000   1.0002   0.0000   0.0000   0.0000
     0.0000

          k =-0.0063 0.4168 0.3334 (   789 PWs)   bands (ev):

  -112.3460 -66.5477 -66.5405 -66.5242  -4.3367   5.8319   6.5079   6.6047
     6.6801   6.8053   7.9048   8.7278  12.2891  16.4134  21.1609  22.9659
    29.4208

     occupation numbers 
     1.0000   1.0000   1.0000   1.0000   1.0000   1.0000   1.0000   1.0000
     1.0000   1.0000   1.0000   1.0000   1.0001   0.0000   0.0000   0.0000
     0.0000

          k =-0.0063 0.4168 0.4167 (   788 PWs)   bands (ev):

  -112.3458 -66.5474 -66.5437 -66.5239  -4.1877   6.0575   6.5965   6.7193
     6.7615   6.9038   7.8355   8.1056  12.2764  15.6575  21.8592  22.5750
    28.7265

     occupation numbers 
     1.0000   1.0000   1.0000   1.0000   1.0000   1.0000   1.0000   1.0000
     1.0000   1.0000   1.0000   1.0000   1.0001   0.0000   0.0000   0.0000
     0.0000

          k =-0.0063 0.4168-0.5001 (   784 PWs)   bands (ev):

  -112.3457 -66.5473 -66.5448 -66.5238  -4.1312   6.1366   6.6644   6.7253
     6.7590   6.9777   7.7419   7.9758  12.2715  15.3476  22.0522  22.5617
    28.3957

     occupation numbers 
     1.0000   1.0000   1.0000   1.0000   1.0000   1.0000   1.0000   1.0000
     1.0000   1.0000   1.0000   1.0000   1.0001   0.0000   0.0000   0.0000
     0.0000

          k = 0.0075-0.5002 0.0000 (   804 PWs)   bands (ev):

  -112.3468 -66.5500 -66.5278 -66.5252  -4.7805   4.4453   6.0708   6.4337
     6.4403   7.0423   7.8782  12.4093  12.4150  17.4443  18.8575  27.8941
    27.9699

     occupation numbers 
     1.0000   1.0000   1.0000   1.0000   1.0000   1.0000   1.0000   1.0000
     1.0000   1.0000   1.0000   1.0019   1.0022   0.0000   0.0000   0.0000
     0.0000

          k = 0.0075-0.5002 0.0833 (   788 PWs)   bands (ev):

  -112.3467 -66.5498 -66.5287 -66.5250  -4.7381   4.5578   6.1012   6.4303
[...]

     occupation numbers 
     1.0000   1.0000   1.0000   1.0000   1.0000   1.0000   1.0000   1.0000
     1.0000   1.0000   1.0000   1.0000   1.0000   0.0000   0.0000   0.0000
     0.0000

          k = 0.4106 0.4106 0.1667 (   786 PWs)   bands (ev):

  -112.3455 -66.5523 -66.5353 -66.5308  -4.0125   5.9475   6.1315   6.4796
     6.6566   7.1205   8.3365   8.9459  11.8002  15.9592  20.9215  21.8093
    28.9277

     occupation numbers 
     1.0000   1.0000   1.0000   1.0000   1.0000   1.0000   1.0000   1.0000
     1.0000   1.0000   1.0000   1.0000   1.0000   0.0000   0.0000   0.0000
     0.0000

          k = 0.4106 0.4106 0.2500 (   776 PWs)   bands (ev):

  -112.3452 -66.5518 -66.5349 -66.5349  -3.8159   5.7279   5.8119   6.3430
     6.7186   7.1482   8.8948   9.6429  11.4213  16.3795  20.0419  20.7871
    26.9923

     occupation numbers 
     1.0000   1.0000   1.0000   1.0000   1.0000   1.0000   1.0000   1.0000
     1.0000   1.0000   1.0000   1.0000   1.0000   0.0000   0.0000   0.0000
     0.0000

          k = 0.4106 0.4106 0.3334 (   783 PWs)   bands (ev):

  -112.3449 -66.5515 -66.5392 -66.5346  -3.6045   5.5469   5.5722   5.9674
     6.9770   7.1631   9.5195  10.3480  11.0955  16.8966  19.1053  19.7261
    25.1276

     occupation numbers 
     1.0000   1.0000   1.0000   1.0000   1.0000   1.0000   1.0000   1.0000
     1.0000   1.0000   1.0000   1.0000   1.0000   0.0000   0.0000   0.0000
     0.0000

          k = 0.4106 0.4106 0.4167 (   775 PWs)   bands (ev):

  -112.3447 -66.5511 -66.5422 -66.5343  -3.4385   5.4250   5.4312   5.6647
     7.1679   7.1713  10.1024  10.8311  10.9111  17.2544  18.5479  18.8993
    23.6769

     occupation numbers 
     1.0000   1.0000   1.0000   1.0000   1.0000   1.0000   1.0000   1.0000
     1.0000   1.0000   1.0000   1.0000   1.0000   0.0000   0.0000   0.0000
     0.0000

          k = 0.4106 0.4106-0.5001 (   774 PWs)   bands (ev):

  -112.3446 -66.5511 -66.5433 -66.5342  -3.3750   5.3755   5.3903   5.5498
     7.1740   7.2375  10.4936  10.5839  11.1355  17.2626  18.5229  18.5789
    23.0842

     occupation numbers 
     1.0000   1.0000   1.0000   1.0000   1.0000   1.0000   1.0000   1.0000
     1.0000   1.0000   1.0000   1.0000   1.0000   0.0000   0.0000   0.0000
     0.0000

          k = 0.4243-0.5064 0.0000 (   786 PWs)   bands (ev):

  -112.3457 -66.5532 -66.5362 -66.5265  -4.1336   6.1376   6.6710   6.7173
     6.7608   6.9752   7.7363   7.9856  12.2713  15.3563  21.9607  22.6525
    28.4113

     occupation numbers 
     1.0000   1.0000   1.0000   1.0000   1.0000   1.0000   1.0000   1.0000
     1.0000   1.0000   1.0000   1.0000   1.0001   0.0000   0.0000   0.0000
     0.0000

          k = 0.4243-0.5064 0.0833 (   790 PWs)   bands (ev):

  -112.3456 -66.5531 -66.5361 -66.5277  -4.0855   6.1749   6.3949   6.5130
     6.7694   7.1096   7.9654   8.2182  12.1438  15.4473  21.7387  22.3618
    28.6837

     occupation numbers 
     1.0000   1.0000   1.0000   1.0000   1.0000   1.0000   1.0000   1.0000
     1.0000   1.0000   1.0000   1.0000   1.0000   0.0000   0.0000   0.0000
     0.0000

          k = 0.4243-0.5064 0.1667 (   785 PWs)   bands (ev):

  -112.3454 -66.5528 -66.5358 -66.5307  -3.9496   6.0320   6.0493   6.4799
     6.5937   7.1762   8.5125   8.7653  11.8318  15.7226  21.0806  21.5779
    29.1816

     occupation numbers 
     1.0000   1.0000   1.0000   1.0000   1.0000   1.0000   1.0000   1.0000
     1.0000   1.0000   1.0000   1.0000   1.0000   0.0000   0.0000   0.0000
     0.0000

          k = 0.4243-0.5064 0.2500 (   786 PWs)   bands (ev):

  -112.3451 -66.5525 -66.5355 -66.5349  -3.7529   5.7415   5.7546   6.2519
     6.7286   7.2017   9.1944   9.4388  11.4802  16.1836  20.0825  20.5287
    26.9704

     occupation numbers 
     1.0000   1.0000   1.0000   1.0000   1.0000   1.0000   1.0000   1.0000
     1.0000   1.0000   1.0000   1.0000   1.0000   0.0000   0.0000   0.0000
     0.0000

          k = 0.4243-0.5064 0.3334 (   782 PWs)   bands (ev):

  -112.3449 -66.5521 -66.5391 -66.5350  -3.5412   5.5150   5.5350   5.8664
     6.9904   7.2168   9.9042  10.1136  11.2032  16.7998  18.9922  19.4750
    24.8682

     occupation numbers 
     1.0000   1.0000   1.0000   1.0000   1.0000   1.0000   1.0000   1.0000
     1.0000   1.0000   1.0000   1.0000   1.0000   0.0000   0.0000   0.0000
     0.0000

          k = 0.4243-0.5064 0.4167 (   779 PWs)   bands (ev):

  -112.3446 -66.5518 -66.5421 -66.5347  -3.3748   5.3822   5.3999   5.5521
     7.1722   7.2390  10.4953  10.6228  11.0653  17.3509  18.2417  18.6624
    23.2260

     occupation numbers 
     1.0000   1.0000   1.0000   1.0000   1.0000   1.0000   1.0000   1.0000
     1.0000   1.0000   1.0000   1.0000   1.0000   0.0000   0.0000   0.0000
     0.0000

          k = 0.4243-0.5064-0.5001 (   782 PWs)   bands (ev):

  -112.3446 -66.5517 -66.5433 -66.5347  -3.3112   5.3511   5.3525   5.4204
     7.2063   7.2796  10.7549  10.7559  11.0761  17.3783  18.2697  18.3027
    22.5354

     occupation numbers 
     1.0000   1.0000   1.0000   1.0000   1.0000   1.0000   1.0000   1.0000
     1.0000   1.0000   1.0000   1.0000   1.0000   0.0000   0.0000   0.0000
     0.0000

          k = 0.4231-0.4231 0.0000 (   788 PWs)   bands (ev):

  -112.3458 -66.5527 -66.5358 -66.5265  -4.1833   6.0492   6.6066   6.7237
     6.7499   6.8682   7.8661   8.0754  12.2878  15.7190  22.0444  22.3374
    28.7958

     occupation numbers 
     1.0000   1.0000   1.0000   1.0000   1.0000   1.0000   1.0000   1.0000
     1.0000   1.0000   1.0000   1.0000   1.0001   0.0000   0.0000   0.0000
     0.0000

          k = 0.4231-0.4231 0.0833 (   795 PWs)   bands (ev):

  -112.3457 -66.5526 -66.5357 -66.5277  -4.1357   6.0650   6.4409   6.4647
     6.7971   7.0228   8.0084   8.2964  12.1497  15.8043  21.8696  22.0712
    28.9749

     occupation numbers 
     1.0000   1.0000   1.0000   1.0000   1.0000   1.0000   1.0000   1.0000
     1.0000   1.0000   1.0000   1.0000   1.0000   0.0000   0.0000   0.0000
     0.0000

          k = 0.4231-0.4231 0.1667 (   787 PWs)   bands (ev):

  -112.3455 -66.5523 -66.5354 -66.5307  -4.0018   5.9422   6.1106   6.4587
     6.6855   7.1036   8.4095   8.8334  11.8110  16.0573  21.3113  21.3374
    28.7692

     occupation numbers 
     1.0000   1.0000   1.0000   1.0000   1.0000   1.0000   1.0000   1.0000
     1.0000   1.0000   1.0000   1.0000   1.0000   0.0000   0.0000   0.0000
     0.0000

          k = 0.4231-0.4231 0.2500 (   789 PWs)   bands (ev):

  -112.3452 -66.5519 -66.5351 -66.5350  -3.8081   5.7198   5.8063   6.3552
     6.7228   7.1379   8.9719   9.5120  11.4234  16.4640  20.3139  20.4186
    27.0179

     occupation numbers 
     1.0000   1.0000   1.0000   1.0000   1.0000   1.0000   1.0000   1.0000
     1.0000   1.0000   1.0000   1.0000   1.0000   0.0000   0.0000   0.0000
     0.0000

          k = 0.4231-0.4231 0.3334 (   787 PWs)   bands (ev):

  -112.3449 -66.5515 -66.5392 -66.5347  -3.5999   5.5384   5.5792   5.9898
     6.9787   7.1560   9.5962  10.2093  11.0950  16.9663  19.2451  19.4392
    25.2599

     occupation numbers 
     1.0000   1.0000   1.0000   1.0000   1.0000   1.0000   1.0000   1.0000
     1.0000   1.0000   1.0000   1.0000   1.0000   0.0000   0.0000   0.0000
     0.0000

          k = 0.4231-0.4231 0.4167 (   782 PWs)   bands (ev):

  -112.3447 -66.5512 -66.5422 -66.5344  -3.4366   5.4316   5.4400   5.6820
     7.1657   7.1714  10.1671  10.7741  10.8420  17.3659  18.4060  18.7630
    23.9074

     occupation numbers 
     1.0000   1.0000   1.0000   1.0000   1.0000   1.0000   1.0000   1.0000
     1.0000   1.0000   1.0000   1.0000   1.0000   0.0000   0.0000   0.0000
     0.0000

          k = 0.4231-0.4231-0.5001 (   790 PWs)   bands (ev):

  -112.3447 -66.5512 -66.5434 -66.5344  -3.3743   5.3931   5.4037   5.5554
     7.1688   7.2419  10.5289  10.6248  11.0016  17.4451  18.0787  18.6208
    23.3667

     occupation numbers 
     1.0000   1.0000   1.0000   1.0000   1.0000   1.0000   1.0000   1.0000
     1.0000   1.0000   1.0000   1.0000   1.0000   0.0000   0.0000   0.0000
     0.0000

          k =-0.4927-0.4927 0.0000 (   784 PWs)   bands (ev):

  -112.3456 -66.5537 -66.5367 -66.5264  -4.0813   6.2131   6.7310   6.7490
     6.8024   7.2624   7.5419   7.6994  12.2600  15.0167  22.1907  22.6647
    28.0359

     occupation numbers 
     1.0000   1.0000   1.0000   1.0000   1.0000   1.0000   1.0000   1.0000
     1.0000   1.0000   1.0000   1.0000   1.0000   0.0000   0.0000   0.0000
     0.0000

          k =-0.4927-0.4927 0.0833 (   790 PWs)   bands (ev):

  -112.3456 -66.5537 -66.5366 -66.5276  -4.0326   6.2815   6.4651   6.4935
     6.7201   7.2636   7.9008   8.0473  12.1393  15.1089  21.9028  22.3764
    28.3564

     occupation numbers 
     1.0000   1.0000   1.0000   1.0000   1.0000   1.0000   1.0000   1.0000
     1.0000   1.0000   1.0000   1.0000   1.0000   0.0000   0.0000   0.0000
     0.0000

          k =-0.4927-0.4927 0.1667 (   786 PWs)   bands (ev):

  -112.3454 -66.5534 -66.5363 -66.5306  -3.8950   6.0736   6.0963   6.4530
     6.4995   7.2668   8.5647   8.7141  11.8422  15.3923  21.1159  21.5907
    29.1661

     occupation numbers 
     1.0000   1.0000   1.0000   1.0000   1.0000   1.0000   1.0000   1.0000
     1.0000   1.0000   1.0000   1.0000   1.0000   0.0000   0.0000   0.0000
     0.0000

          k =-0.4927-0.4927 0.2500 (   782 PWs)   bands (ev):

  -112.3451 -66.5530 -66.5359 -66.5348  -3.6957   5.7440   5.7551   6.1210
     6.7379   7.2711   9.3200   9.4747  11.5033  15.8841  20.0290  20.5112
    26.7826

     occupation numbers 
     1.0000   1.0000   1.0000   1.0000   1.0000   1.0000   1.0000   1.0000
     1.0000   1.0000   1.0000   1.0000   1.0000   0.0000   0.0000   0.0000
     0.0000

          k =-0.4927-0.4927 0.3334 (   780 PWs)   bands (ev):

  -112.3448 -66.5526 -66.5389 -66.5356  -3.4807   5.5026   5.5030   5.7283
     7.0071   7.2755  10.0773  10.2301  11.2275  16.5922  18.8980  19.3950
    24.4166

     occupation numbers 
     1.0000   1.0000   1.0000   1.0000   1.0000   1.0000   1.0000   1.0000
     1.0000   1.0000   1.0000   1.0000   1.0000   0.0000   0.0000   0.0000
     0.0000

          k =-0.4927-0.4927 0.4167 (   780 PWs)   bands (ev):

  -112.3446 -66.5524 -66.5420 -66.5352  -3.3114   5.3496   5.3559   5.4187
     7.2072   7.2788  10.6927  10.8357  11.0583  17.4316  18.0050  18.5216
    22.5281

     occupation numbers 
     1.0000   1.0000   1.0000   1.0000   1.0000   1.0000   1.0000   1.0000
     1.0000   1.0000   1.0000   1.0000   1.0000   0.0000   0.0000   0.0000
     0.0000

          k =-0.4927-0.4927-0.5001 (   780 PWs)   bands (ev):

  -112.3445 -66.5523 -66.5431 -66.5350  -3.2465   5.2981   5.3008   5.3068
     7.2799   7.2810  10.9432  11.0023  11.0792  17.6535  17.9229  18.1806
    21.6781

     occupation numbers 
     1.0000   1.0000   1.0000   1.0000   1.0000   1.0000   1.0000   1.0000
     1.0000   1.0000   1.0000   1.0000   1.0000   0.0000   0.0000   0.0000
     0.0000

     the Fermi energy is    12.9971 ev

     WARNING: integrated charge=    26.00875834, expected=    26.00000000

!    total energy              =    -503.17160080 Ry
     estimated scf accuracy    <          4.7E-09 Ry
     smearing contrib. (-TS)   =       0.00000883 Ry
     internal energy E=F+TS    =    -503.17160963 Ry

     The total energy is F=E-TS. E is the sum of the following terms:
     one-electron contribution =    -353.08337389 Ry
     hartree contribution      =     190.18547929 Ry
     xc contribution           =     -49.70879205 Ry
     ewald contribution        =    -281.03376288 Ry
     one-center paw contrib.   =      -9.53116010 Ry
      -> PAW hartree energy AE =      25.60729541 Ry
      -> PAW hartree energy PS =     -25.49347247 Ry
      -> PAW xc energy AE      =     -16.59479809 Ry
      -> PAW xc energy PS      =       6.94981505 Ry
      -> total E_H with PAW    =     190.29930223 Ry
      -> total E_XC with PAW   =     -59.35377509 Ry

     convergence has been achieved in   9 iterations

     Forces acting on atoms (cartesian axes, Ry/au):

     atom    1 type  2   force =     0.00000000    0.00000000    0.00000000
     atom    2 type  1   force =     0.00000000    0.00000000    0.00000000
     The non-local contrib.  to forces
     atom    1 type  2   force =     0.00000000    0.00000000    0.00000000
     atom    2 type  1   force =     0.00000000    0.00000000    0.00000000
     The ionic contribution  to forces
     atom    1 type  2   force =    -0.00000000   -0.00000000   -0.00000000
     atom    2 type  1   force =     0.00000000    0.00000000    0.00000000
     The local contribution  to forces
     atom    1 type  2   force =     0.00000000    0.00000000    0.00000000
     atom    2 type  1   force =     0.00000000    0.00000000    0.00000000
     The core correction contribution to forces
     atom    1 type  2   force =     0.00000000    0.00000000    0.00000000
     atom    2 type  1   force =     0.00000000    0.00000000   -0.00000000
     The Hubbard contrib.    to forces
     atom    1 type  2   force =     0.00000000    0.00000000    0.00000000
     atom    2 type  1   force =     0.00000000    0.00000000    0.00000000
     The SCF correction term to forces
     atom    1 type  2   force =    -0.00000000    0.00000000    0.00000000
     atom    2 type  1   force =    -0.00000000   -0.00000000    0.00000000

     Total force =     0.000000     Total SCF correction =     0.000000


     Computing stress (Cartesian axis) and pressure

          total   stress  (Ry/bohr**3)                   (kbar)     P=        9.78
   0.00006732   0.00012619   0.00000000            9.90       18.56        0.00
   0.00012619   0.00006732   0.00000000           18.56        9.90        0.00
   0.00000000   0.00000000   0.00006482            0.00        0.00        9.54

     kinetic stress (kbar)  42475.01     65.53      0.00
                               65.53  42475.01      0.00
                                0.00      0.00  42472.77

     local   stress (kbar)  10088.80   1153.44     -0.00
                             1153.44  10088.80     -0.00
                               -0.00     -0.00   9993.07

     nonloc. stress (kbar)   -941.51    -22.04      0.00
                              -22.04   -941.51      0.00
                                0.00      0.00   -940.23

     hartree stress (kbar)  70852.08   -425.72      0.00
                             -425.72  70852.08     -0.00
                                0.00     -0.00  70889.69

     exc-cor stress (kbar) -17254.58     -1.55      0.00
                               -1.55 -17254.58      0.00
                                0.00      0.00 -17254.50

     corecor stress (kbar)   -474.94     -0.19     -0.00
                               -0.19   -474.94     -0.00
                               -0.00     -0.00   -474.94

     ewald   stress (kbar)-104734.94   -750.90     -0.00
                             -750.90-104734.94      0.00
                               -0.00      0.00-104676.32

     hubbard stress (kbar)      0.00      0.00      0.00
                                0.00      0.00      0.00
                                0.00      0.00      0.00

     DFT-D   stress (kbar)      0.00      0.00      0.00
                                0.00      0.00      0.00
                                0.00      0.00      0.00

     XDM     stress (kbar)      0.00      0.00      0.00
                                0.00      0.00      0.00
                                0.00      0.00      0.00

     dft-nl  stress (kbar)      0.00      0.00      0.00
                                0.00      0.00      0.00
                                0.00      0.00      0.00

     TS-vdW  stress (kbar)      0.00      0.00      0.00
                                0.00      0.00      0.00
                                0.00      0.00      0.00

     MDB     stress (kbar)      0.00      0.00      0.00
                                0.00      0.00      0.00
                                0.00      0.00      0.00

     3D-RISM stress (kbar)      0.00      0.00      0.00
                                0.00      0.00      0.00
                                0.00      0.00      0.00


     Writing all to output data dir ./temp_cubic/aiida.save/ :
     XML data file, charge density, pseudopotentials, collected wavefunctions

     init_run     :     70.76s CPU      3.17s WALL (       1 calls)
     electrons    :   2740.32s CPU    115.88s WALL (       1 calls)
     forces       :     23.78s CPU      1.02s WALL (       1 calls)
     stress       :     26.67s CPU      1.34s WALL (       1 calls)

     Called by init_run:
     wfcinit      :     67.87s CPU      2.83s WALL (       1 calls)
     wfcinit:atom :      1.40s CPU      0.06s WALL (     301 calls)
     wfcinit:wfcr :     60.87s CPU      2.57s WALL (     301 calls)
     potinit      :      0.70s CPU      0.05s WALL (       1 calls)
     hinit0       :      1.05s CPU      0.22s WALL (       1 calls)

     Called by electrons:
     c_bands      :   2306.94s CPU     97.04s WALL (       9 calls)
     sum_band     :    422.34s CPU     18.16s WALL (       9 calls)
     v_of_rho     :      1.03s CPU      0.08s WALL (      10 calls)
     v_h          :      0.01s CPU      0.01s WALL (      10 calls)
     v_xc         :      1.26s CPU      0.08s WALL (      12 calls)
     newd         :      5.96s CPU      0.43s WALL (      10 calls)
     PAW_pot      :      3.89s CPU      0.16s WALL (      10 calls)
     mix_rho      :      0.26s CPU      0.02s WALL (       9 calls)

     Called by c_bands:
     init_us_2    :     38.58s CPU      1.69s WALL (    6321 calls)
     cegterg      :   2120.56s CPU     89.40s WALL (    2709 calls)

     Called by sum_band:
     sum_band:wei :      0.98s CPU      0.04s WALL (       9 calls)
     sum_band:loo :    418.07s CPU     17.70s WALL (       9 calls)
     sum_band:buf :      1.70s CPU      0.07s WALL (    2709 calls)
     sum_band:ini :     15.94s CPU      0.59s WALL (    2709 calls)
     sum_band:cal :     28.95s CPU      1.39s WALL (    2709 calls)
     sum_band:bec :     19.24s CPU      0.79s WALL (    2709 calls)
     addusdens    :      3.23s CPU      0.39s WALL (       9 calls)
                                        0.00s GPU  (       9 calls)
     addusd:skk   :      0.01s CPU      0.00s WALL (      18 calls)
                                        0.00s GPU  (      18 calls)

     Called by *egterg:
     cdiaghg      :     57.60s CPU      2.36s WALL (    8589 calls)
     cegterg:over :    112.71s CPU      5.04s WALL (    5880 calls)
     cegterg:upda :     99.11s CPU      4.07s WALL (    5880 calls)
     cegterg:last :    200.12s CPU      7.48s WALL (    5231 calls)
     h_psi        :   1481.75s CPU     62.99s WALL (    8890 calls)
     s_psi        :     95.38s CPU      4.05s WALL (    8890 calls)
     g_psi        :     28.71s CPU      1.29s WALL (    5880 calls)

     Called by h_psi:
     h_psi:calbec :     87.78s CPU      3.71s WALL (    8890 calls)
     vloc_psi     :   1262.37s CPU     53.65s WALL (    8890 calls)
     add_vuspsi   :     98.41s CPU      4.04s WALL (    8890 calls)

     General routines
     calbec       :    134.44s CPU      5.83s WALL (   13104 calls)
     fft          :      0.65s CPU      0.07s WALL (     153 calls)
     ffts         :      0.23s CPU      0.00s WALL (      19 calls)
     fftw         :    525.12s CPU     23.01s WALL (  270051 calls)
     interpolate  :      0.24s CPU      0.01s WALL (      10 calls)

     Parallel routines

     PAW routines
     PAW_pot      :      3.89s CPU      0.16s WALL (      10 calls)
     PAW_symme    :      0.00s CPU      0.00s WALL (      19 calls)

     PWSCF        :  48m 6.40s CPU   2m 2.99s WALL


   This run was terminated on:  17:20: 4  13Jun2024            

=------------------------------------------------------------------------------=
   JOB DONE.
=------------------------------------------------------------------------------=
