
     Program PWSCF v.7.3.1 starts on  7Jun2024 at 21:48:27 

     This program is part of the open-source Quantum ESPRESSO suite
     for quantum simulation of materials; please cite
         "P. Giannozzi et al., J. Phys.:Condens. Matter 21 395502 (2009);
         "P. Giannozzi et al., J. Phys.:Condens. Matter 29 465901 (2017);
         "P. Giannozzi et al., J. Chem. Phys. 152 154105 (2020);
          URL http://www.quantum-espresso.org", 
     in publications or presentations arising from this work. More details at
     http://www.quantum-espresso.org/quote

     Parallel version (MPI & OpenMP), running on      24 processor cores
     Number of MPI processes:                 1
     Threads/MPI process:                    24

     MPI processes distributed on     1 nodes
     4481 MiB available memory on the printing compute node when the environment starts

     Waiting for input...
     Reading input from standard input

     Current dimensions of program PWSCF are:
     Max number of different atomic species (ntypx) = 10
     Max number of k-points (npk) =  40000
     Max angular momentum in pseudopotentials (lmaxx) =  4
     file O.pbe-n-kjpaw_psl.0.1.UPF: wavefunction(s)  2P renormalized
     Message from routine setup:
     using ibrav=0 with symmetry is DISCOURAGED, use correct ibrav instead

     Subspace diagonalization in iterative solution of the eigenvalue problem:
     a serial algorithm will be used


     G-vector sticks info
     --------------------
     sticks:   dense  smooth     PW     G-vecs:    dense   smooth      PW
     Sum         845     421    137                18325     6451    1237

     Using Slab Decomposition



     bravais-lattice index     =            0
     lattice parameter (alat)  =       5.1377  a.u.
     unit-cell volume          =     135.6176 (a.u.)^3
     number of atoms/cell      =            2
     number of atomic types    =            2
     number of electrons       =        26.00
     number of Kohn-Sham states=           17
     kinetic-energy cutoff     =      50.0000  Ry
     charge density cutoff     =     400.0000  Ry
     scf convergence threshold =      1.0E-08
     mixing beta               =       0.4000
     number of iterations used =            8  plain     mixing
     Exchange-correlation= SLA  PW   PBE  PBE
                           (   1   4   3   4   0   0   0)

     celldm(1)=   5.137739  celldm(2)=   0.000000  celldm(3)=   0.000000
     celldm(4)=   0.000000  celldm(5)=   0.000000  celldm(6)=   0.000000

     crystal axes: (cart. coord. in units of alat)
               a(1) = (   1.000000   0.000000   0.000000 )  
               a(2) = (   0.000000   1.000000   0.000000 )  
               a(3) = (   0.000000   0.000000   1.000000 )  

     reciprocal axes: (cart. coord. in units 2 pi/alat)
               b(1) = (  1.000000  0.000000  0.000000 )  
               b(2) = (  0.000000  1.000000  0.000000 )  
               b(3) = (  0.000000  0.000000  1.000000 )  


     PseudoPot. # 1 for O  read from file:
     ../SSSP_1.3.0_PBE_efficiency/O.pbe-n-kjpaw_psl.0.1.UPF
     MD5 check sum: 0234752ac141de4415c5fc33072bef88
     Pseudo is Projector augmented-wave + core cor, Zval =  6.0
     Generated using "atomic" code by A. Dal Corso  v.5.0.99 svn rev. 10869
     Shape of augmentation charge: BESSEL
     Using radial grid of 1095 points,  4 beta functions with: 
                l(1) =   0
                l(2) =   0
                l(3) =   1
                l(4) =   1
     Q(r) pseudized with 0 coefficients 


     PseudoPot. # 2 for Zn read from file:
     ../SSSP_1.3.0_PBE_efficiency/Zn_pbe_v1.uspp.F.UPF
     MD5 check sum: df62231357ef9e81f77b2b3087fa5675
     Pseudo is Ultrasoft, Zval = 20.0
     Generated by new atomic code, or converted to UPF format
     Using radial grid of  943 points,  6 beta functions with: 
                l(1) =   0
                l(2) =   0
                l(3) =   1
                l(4) =   1
                l(5) =   2
                l(6) =   2
     Q(r) pseudized with  8 coefficients,  rinner =    1.100   1.100   1.100
                                                       1.100   1.100

     atomic species   valence    mass     pseudopotential
     O                 6.00    15.99940     O ( 1.00)
     Zn               20.00    65.38000     Zn( 1.00)

     48 Sym. Ops., with inversion, found


                                    s                        frac. trans.

      isym =  1     identity                                     

 cryst.   s( 1) = (     1          0          0      )
                  (     0          1          0      )
                  (     0          0          1      )

 cart.    s( 1) = (  1.0000000  0.0000000  0.0000000 )
                  (  0.0000000  1.0000000  0.0000000 )
                  (  0.0000000  0.0000000  1.0000000 )


      isym =  2     180 deg rotation - cart. axis [0,0,1]        

 cryst.   s( 2) = (    -1          0          0      )
                  (     0         -1          0      )
                  (     0          0          1      )

 cart.    s( 2) = ( -1.0000000  0.0000000  0.0000000 )
                  (  0.0000000 -1.0000000  0.0000000 )
                  (  0.0000000  0.0000000  1.0000000 )


      isym =  3     180 deg rotation - cart. axis [0,1,0]        

 cryst.   s( 3) = (    -1          0          0      )
                  (     0          1          0      )
                  (     0          0         -1      )

 cart.    s( 3) = ( -1.0000000  0.0000000  0.0000000 )
                  (  0.0000000  1.0000000  0.0000000 )
                  (  0.0000000  0.0000000 -1.0000000 )


      isym =  4     180 deg rotation - cart. axis [1,0,0]        

 cryst.   s( 4) = (     1          0          0      )
                  (     0         -1          0      )
                  (     0          0         -1      )

 cart.    s( 4) = (  1.0000000  0.0000000  0.0000000 )
                  (  0.0000000 -1.0000000  0.0000000 )
                  (  0.0000000  0.0000000 -1.0000000 )


      isym =  5     180 deg rotation - cart. axis [1,1,0]        

 cryst.   s( 5) = (     0          1          0      )
                  (     1          0          0      )
                  (     0          0         -1      )

 cart.    s( 5) = (  0.0000000  1.0000000  0.0000000 )
                  (  1.0000000  0.0000000  0.0000000 )
                  (  0.0000000  0.0000000 -1.0000000 )


      isym =  6     180 deg rotation - cart. axis [1,-1,0]       

 cryst.   s( 6) = (     0         -1          0      )
                  (    -1          0          0      )
                  (     0          0         -1      )

 cart.    s( 6) = (  0.0000000 -1.0000000  0.0000000 )
                  ( -1.0000000  0.0000000  0.0000000 )
                  (  0.0000000  0.0000000 -1.0000000 )


      isym =  7      90 deg rotation - cart. axis [0,0,-1]       

 cryst.   s( 7) = (     0         -1          0      )
                  (     1          0          0      )
                  (     0          0          1      )

 cart.    s( 7) = (  0.0000000  1.0000000  0.0000000 )
                  ( -1.0000000  0.0000000  0.0000000 )
                  (  0.0000000  0.0000000  1.0000000 )


      isym =  8      90 deg rotation - cart. axis [0,0,1]        

 cryst.   s( 8) = (     0          1          0      )
                  (    -1          0          0      )
                  (     0          0          1      )

 cart.    s( 8) = (  0.0000000 -1.0000000  0.0000000 )
                  (  1.0000000  0.0000000  0.0000000 )
                  (  0.0000000  0.0000000  1.0000000 )


      isym =  9     180 deg rotation - cart. axis [1,0,1]        

 cryst.   s( 9) = (     0          0          1      )
                  (     0         -1          0      )
                  (     1          0          0      )

 cart.    s( 9) = (  0.0000000  0.0000000  1.0000000 )
                  (  0.0000000 -1.0000000  0.0000000 )
                  (  1.0000000  0.0000000  0.0000000 )


      isym = 10     180 deg rotation - cart. axis [-1,0,1]       

 cryst.   s(10) = (     0          0         -1      )
                  (     0         -1          0      )
                  (    -1          0          0      )

 cart.    s(10) = (  0.0000000  0.0000000 -1.0000000 )
                  (  0.0000000 -1.0000000  0.0000000 )
                  ( -1.0000000  0.0000000  0.0000000 )


      isym = 11      90 deg rotation - cart. axis [0,1,0]        

 cryst.   s(11) = (     0          0         -1      )
                  (     0          1          0      )
                  (     1          0          0      )

 cart.    s(11) = (  0.0000000  0.0000000  1.0000000 )
                  (  0.0000000  1.0000000  0.0000000 )
                  ( -1.0000000  0.0000000  0.0000000 )


      isym = 12      90 deg rotation - cart. axis [0,-1,0]       

 cryst.   s(12) = (     0          0          1      )
                  (     0          1          0      )
                  (    -1          0          0      )

 cart.    s(12) = (  0.0000000  0.0000000 -1.0000000 )
                  (  0.0000000  1.0000000  0.0000000 )
                  (  1.0000000  0.0000000  0.0000000 )


      isym = 13     180 deg rotation - cart. axis [0,1,1]        

 cryst.   s(13) = (    -1          0          0      )
                  (     0          0          1      )
                  (     0          1          0      )

 cart.    s(13) = ( -1.0000000  0.0000000  0.0000000 )
                  (  0.0000000  0.0000000  1.0000000 )
                  (  0.0000000  1.0000000  0.0000000 )


      isym = 14     180 deg rotation - cart. axis [0,1,-1]       

 cryst.   s(14) = (    -1          0          0      )
                  (     0          0         -1      )
                  (     0         -1          0      )

 cart.    s(14) = ( -1.0000000  0.0000000  0.0000000 )
                  (  0.0000000  0.0000000 -1.0000000 )
                  (  0.0000000 -1.0000000  0.0000000 )


      isym = 15      90 deg rotation - cart. axis [-1,0,0]       

 cryst.   s(15) = (     1          0          0      )
                  (     0          0         -1      )
                  (     0          1          0      )

 cart.    s(15) = (  1.0000000  0.0000000  0.0000000 )
                  (  0.0000000  0.0000000  1.0000000 )
                  (  0.0000000 -1.0000000  0.0000000 )


      isym = 16      90 deg rotation - cart. axis [1,0,0]        

 cryst.   s(16) = (     1          0          0      )
                  (     0          0          1      )
                  (     0         -1          0      )

 cart.    s(16) = (  1.0000000  0.0000000  0.0000000 )
                  (  0.0000000  0.0000000 -1.0000000 )
                  (  0.0000000  1.0000000  0.0000000 )


      isym = 17     120 deg rotation - cart. axis [-1,-1,-1]     

 cryst.   s(17) = (     0          0          1      )
                  (     1          0          0      )
                  (     0          1          0      )

 cart.    s(17) = (  0.0000000  1.0000000  0.0000000 )
                  (  0.0000000  0.0000000  1.0000000 )
                  (  1.0000000  0.0000000  0.0000000 )


      isym = 18     120 deg rotation - cart. axis [-1,1,1]       

 cryst.   s(18) = (     0          0         -1      )
                  (    -1          0          0      )
                  (     0          1          0      )

 cart.    s(18) = (  0.0000000 -1.0000000  0.0000000 )
                  (  0.0000000  0.0000000  1.0000000 )
                  ( -1.0000000  0.0000000  0.0000000 )


      isym = 19     120 deg rotation - cart. axis [1,1,-1]       

 cryst.   s(19) = (     0          0         -1      )
                  (     1          0          0      )
                  (     0         -1          0      )

 cart.    s(19) = (  0.0000000  1.0000000  0.0000000 )
                  (  0.0000000  0.0000000 -1.0000000 )
                  ( -1.0000000  0.0000000  0.0000000 )


      isym = 20     120 deg rotation - cart. axis [1,-1,1]       

 cryst.   s(20) = (     0          0          1      )
                  (    -1          0          0      )
                  (     0         -1          0      )

 cart.    s(20) = (  0.0000000 -1.0000000  0.0000000 )
                  (  0.0000000  0.0000000 -1.0000000 )
                  (  1.0000000  0.0000000  0.0000000 )


      isym = 21     120 deg rotation - cart. axis [1,1,1]        

 cryst.   s(21) = (     0          1          0      )
                  (     0          0          1      )
                  (     1          0          0      )

 cart.    s(21) = (  0.0000000  0.0000000  1.0000000 )
                  (  1.0000000  0.0000000  0.0000000 )
                  (  0.0000000  1.0000000  0.0000000 )


      isym = 22     120 deg rotation - cart. axis [-1,1,-1]      

 cryst.   s(22) = (     0         -1          0      )
                  (     0          0         -1      )
                  (     1          0          0      )

 cart.    s(22) = (  0.0000000  0.0000000  1.0000000 )
                  ( -1.0000000  0.0000000  0.0000000 )
                  (  0.0000000 -1.0000000  0.0000000 )


      isym = 23     120 deg rotation - cart. axis [1,-1,-1]      

 cryst.   s(23) = (     0         -1          0      )
                  (     0          0          1      )
                  (    -1          0          0      )

 cart.    s(23) = (  0.0000000  0.0000000 -1.0000000 )
                  ( -1.0000000  0.0000000  0.0000000 )
                  (  0.0000000  1.0000000  0.0000000 )


      isym = 24     120 deg rotation - cart. axis [-1,-1,1]      

 cryst.   s(24) = (     0          1          0      )
                  (     0          0         -1      )
                  (    -1          0          0      )

 cart.    s(24) = (  0.0000000  0.0000000 -1.0000000 )
                  (  1.0000000  0.0000000  0.0000000 )
                  (  0.0000000 -1.0000000  0.0000000 )


      isym = 25     inversion                                    

 cryst.   s(25) = (    -1          0          0      )
                  (     0         -1          0      )
                  (     0          0         -1      )

 cart.    s(25) = ( -1.0000000  0.0000000  0.0000000 )
                  (  0.0000000 -1.0000000  0.0000000 )
                  (  0.0000000  0.0000000 -1.0000000 )


      isym = 26     inv. 180 deg rotation - cart. axis [0,0,1]   

 cryst.   s(26) = (     1          0          0      )
                  (     0          1          0      )
                  (     0          0         -1      )

 cart.    s(26) = (  1.0000000  0.0000000  0.0000000 )
                  (  0.0000000  1.0000000  0.0000000 )
                  (  0.0000000  0.0000000 -1.0000000 )


      isym = 27     inv. 180 deg rotation - cart. axis [0,1,0]   

 cryst.   s(27) = (     1          0          0      )
                  (     0         -1          0      )
                  (     0          0          1      )

 cart.    s(27) = (  1.0000000  0.0000000  0.0000000 )
                  (  0.0000000 -1.0000000  0.0000000 )
                  (  0.0000000  0.0000000  1.0000000 )


      isym = 28     inv. 180 deg rotation - cart. axis [1,0,0]   

 cryst.   s(28) = (    -1          0          0      )
                  (     0          1          0      )
                  (     0          0          1      )

 cart.    s(28) = ( -1.0000000  0.0000000  0.0000000 )
                  (  0.0000000  1.0000000  0.0000000 )
                  (  0.0000000  0.0000000  1.0000000 )


      isym = 29     inv. 180 deg rotation - cart. axis [1,1,0]   

 cryst.   s(29) = (     0         -1          0      )
                  (    -1          0          0      )
                  (     0          0          1      )

 cart.    s(29) = (  0.0000000 -1.0000000  0.0000000 )
                  ( -1.0000000  0.0000000  0.0000000 )
                  (  0.0000000  0.0000000  1.0000000 )


      isym = 30     inv. 180 deg rotation - cart. axis [1,-1,0]  

 cryst.   s(30) = (     0          1          0      )
                  (     1          0          0      )
                  (     0          0          1      )

 cart.    s(30) = (  0.0000000  1.0000000  0.0000000 )
                  (  1.0000000  0.0000000  0.0000000 )
                  (  0.0000000  0.0000000  1.0000000 )


      isym = 31     inv.  90 deg rotation - cart. axis [0,0,-1]  

 cryst.   s(31) = (     0          1          0      )
                  (    -1          0          0      )
                  (     0          0         -1      )

 cart.    s(31) = (  0.0000000 -1.0000000  0.0000000 )
                  (  1.0000000  0.0000000  0.0000000 )
                  (  0.0000000  0.0000000 -1.0000000 )


      isym = 32     inv.  90 deg rotation - cart. axis [0,0,1]   

 cryst.   s(32) = (     0         -1          0      )
                  (     1          0          0      )
                  (     0          0         -1      )

 cart.    s(32) = (  0.0000000  1.0000000  0.0000000 )
                  ( -1.0000000  0.0000000  0.0000000 )
                  (  0.0000000  0.0000000 -1.0000000 )


      isym = 33     inv. 180 deg rotation - cart. axis [1,0,1]   

 cryst.   s(33) = (     0          0         -1      )
                  (     0          1          0      )
                  (    -1          0          0      )

 cart.    s(33) = (  0.0000000  0.0000000 -1.0000000 )
                  (  0.0000000  1.0000000  0.0000000 )
                  ( -1.0000000  0.0000000  0.0000000 )


      isym = 34     inv. 180 deg rotation - cart. axis [-1,0,1]  

 cryst.   s(34) = (     0          0          1      )
                  (     0          1          0      )
                  (     1          0          0      )

 cart.    s(34) = (  0.0000000  0.0000000  1.0000000 )
                  (  0.0000000  1.0000000  0.0000000 )
                  (  1.0000000  0.0000000  0.0000000 )


      isym = 35     inv.  90 deg rotation - cart. axis [0,1,0]   

 cryst.   s(35) = (     0          0          1      )
                  (     0         -1          0      )
                  (    -1          0          0      )

 cart.    s(35) = (  0.0000000  0.0000000 -1.0000000 )
                  (  0.0000000 -1.0000000  0.0000000 )
                  (  1.0000000  0.0000000  0.0000000 )


      isym = 36     inv.  90 deg rotation - cart. axis [0,-1,0]  

 cryst.   s(36) = (     0          0         -1      )
                  (     0         -1          0      )
                  (     1          0          0      )

 cart.    s(36) = (  0.0000000  0.0000000  1.0000000 )
                  (  0.0000000 -1.0000000  0.0000000 )
                  ( -1.0000000  0.0000000  0.0000000 )


      isym = 37     inv. 180 deg rotation - cart. axis [0,1,1]   

 cryst.   s(37) = (     1          0          0      )
                  (     0          0         -1      )
                  (     0         -1          0      )

 cart.    s(37) = (  1.0000000  0.0000000  0.0000000 )
                  (  0.0000000  0.0000000 -1.0000000 )
                  (  0.0000000 -1.0000000  0.0000000 )


      isym = 38     inv. 180 deg rotation - cart. axis [0,1,-1]  

 cryst.   s(38) = (     1          0          0      )
                  (     0          0          1      )
                  (     0          1          0      )

 cart.    s(38) = (  1.0000000  0.0000000  0.0000000 )
                  (  0.0000000  0.0000000  1.0000000 )
                  (  0.0000000  1.0000000  0.0000000 )


      isym = 39     inv.  90 deg rotation - cart. axis [-1,0,0]  

 cryst.   s(39) = (    -1          0          0      )
                  (     0          0          1      )
                  (     0         -1          0      )

 cart.    s(39) = ( -1.0000000  0.0000000  0.0000000 )
                  (  0.0000000  0.0000000 -1.0000000 )
                  (  0.0000000  1.0000000  0.0000000 )


      isym = 40     inv.  90 deg rotation - cart. axis [1,0,0]   

 cryst.   s(40) = (    -1          0          0      )
                  (     0          0         -1      )
                  (     0          1          0      )

 cart.    s(40) = ( -1.0000000  0.0000000  0.0000000 )
                  (  0.0000000  0.0000000  1.0000000 )
                  (  0.0000000 -1.0000000  0.0000000 )


      isym = 41     inv. 120 deg rotation - cart. axis [-1,-1,-1]

 cryst.   s(41) = (     0          0         -1      )
                  (    -1          0          0      )
                  (     0         -1          0      )

 cart.    s(41) = (  0.0000000 -1.0000000  0.0000000 )
                  (  0.0000000  0.0000000 -1.0000000 )
                  ( -1.0000000  0.0000000  0.0000000 )


      isym = 42     inv. 120 deg rotation - cart. axis [-1,1,1]  

 cryst.   s(42) = (     0          0          1      )
                  (     1          0          0      )
                  (     0         -1          0      )

 cart.    s(42) = (  0.0000000  1.0000000  0.0000000 )
                  (  0.0000000  0.0000000 -1.0000000 )
                  (  1.0000000  0.0000000  0.0000000 )


      isym = 43     inv. 120 deg rotation - cart. axis [1,1,-1]  

 cryst.   s(43) = (     0          0          1      )
                  (    -1          0          0      )
                  (     0          1          0      )

 cart.    s(43) = (  0.0000000 -1.0000000  0.0000000 )
                  (  0.0000000  0.0000000  1.0000000 )
                  (  1.0000000  0.0000000  0.0000000 )


      isym = 44     inv. 120 deg rotation - cart. axis [1,-1,1]  

 cryst.   s(44) = (     0          0         -1      )
                  (     1          0          0      )
                  (     0          1          0      )

 cart.    s(44) = (  0.0000000  1.0000000  0.0000000 )
                  (  0.0000000  0.0000000  1.0000000 )
                  ( -1.0000000  0.0000000  0.0000000 )


      isym = 45     inv. 120 deg rotation - cart. axis [1,1,1]   

 cryst.   s(45) = (     0         -1          0      )
                  (     0          0         -1      )
                  (    -1          0          0      )

 cart.    s(45) = (  0.0000000  0.0000000 -1.0000000 )
                  ( -1.0000000  0.0000000  0.0000000 )
                  (  0.0000000 -1.0000000  0.0000000 )


      isym = 46     inv. 120 deg rotation - cart. axis [-1,1,-1] 

 cryst.   s(46) = (     0          1          0      )
                  (     0          0          1      )
                  (    -1          0          0      )

 cart.    s(46) = (  0.0000000  0.0000000 -1.0000000 )
                  (  1.0000000  0.0000000  0.0000000 )
                  (  0.0000000  1.0000000  0.0000000 )


      isym = 47     inv. 120 deg rotation - cart. axis [1,-1,-1] 

 cryst.   s(47) = (     0          1          0      )
                  (     0          0         -1      )
                  (     1          0          0      )

 cart.    s(47) = (  0.0000000  0.0000000  1.0000000 )
                  (  1.0000000  0.0000000  0.0000000 )
                  (  0.0000000 -1.0000000  0.0000000 )


      isym = 48     inv. 120 deg rotation - cart. axis [-1,-1,1] 

 cryst.   s(48) = (     0         -1          0      )
                  (     0          0          1      )
                  (     1          0          0      )

 cart.    s(48) = (  0.0000000  0.0000000  1.0000000 )
                  ( -1.0000000  0.0000000  0.0000000 )
                  (  0.0000000  1.0000000  0.0000000 )


   Cartesian axes

     site n.     atom                  positions (alat units)
         1        Zn     tau(   1) = (   0.0000000   0.0000000   0.0000000  )
         2        O      tau(   2) = (   0.5000000   0.5000000   0.5000000  )

   Crystallographic axes

     site n.     atom                  positions (cryst. coord.)
         1        Zn     tau(   1) = (  0.0000000  0.0000000  0.0000000  )
         2        O      tau(   2) = (  0.5000000  0.5000000  0.5000000  )

     number of k points=    84  Marzari-Vanderbilt smearing, width (Ry)=  0.0147
                       cart. coord. in units 2pi/alat
        k(    1) = (   0.0000000   0.0000000   0.0000000), wk =   0.0011574
        k(    2) = (   0.0000000   0.0000000   0.0833333), wk =   0.0069444
        k(    3) = (   0.0000000   0.0000000   0.1666667), wk =   0.0069444
        k(    4) = (   0.0000000   0.0000000   0.2500000), wk =   0.0069444
        k(    5) = (   0.0000000   0.0000000   0.3333333), wk =   0.0069444
        k(    6) = (   0.0000000   0.0000000   0.4166667), wk =   0.0069444
        k(    7) = (   0.0000000   0.0000000  -0.5000000), wk =   0.0034722
        k(    8) = (   0.0000000   0.0833333   0.0833333), wk =   0.0138889
        k(    9) = (   0.0000000   0.0833333   0.1666667), wk =   0.0277778
        k(   10) = (   0.0000000   0.0833333   0.2500000), wk =   0.0277778
        k(   11) = (   0.0000000   0.0833333   0.3333333), wk =   0.0277778
        k(   12) = (   0.0000000   0.0833333   0.4166667), wk =   0.0277778
        k(   13) = (   0.0000000   0.0833333  -0.5000000), wk =   0.0138889
        k(   14) = (   0.0000000   0.1666667   0.1666667), wk =   0.0138889
        k(   15) = (   0.0000000   0.1666667   0.2500000), wk =   0.0277778
        k(   16) = (   0.0000000   0.1666667   0.3333333), wk =   0.0277778
        k(   17) = (   0.0000000   0.1666667   0.4166667), wk =   0.0277778
        k(   18) = (   0.0000000   0.1666667  -0.5000000), wk =   0.0138889
        k(   19) = (   0.0000000   0.2500000   0.2500000), wk =   0.0138889
        k(   20) = (   0.0000000   0.2500000   0.3333333), wk =   0.0277778
        k(   21) = (   0.0000000   0.2500000   0.4166667), wk =   0.0277778
        k(   22) = (   0.0000000   0.2500000  -0.5000000), wk =   0.0138889
        k(   23) = (   0.0000000   0.3333333   0.3333333), wk =   0.0138889
        k(   24) = (   0.0000000   0.3333333   0.4166667), wk =   0.0277778
        k(   25) = (   0.0000000   0.3333333  -0.5000000), wk =   0.0138889
        k(   26) = (   0.0000000   0.4166667   0.4166667), wk =   0.0138889
        k(   27) = (   0.0000000   0.4166667  -0.5000000), wk =   0.0138889
        k(   28) = (   0.0000000  -0.5000000  -0.5000000), wk =   0.0034722
        k(   29) = (   0.0833333   0.0833333   0.0833333), wk =   0.0092593
        k(   30) = (   0.0833333   0.0833333   0.1666667), wk =   0.0277778
        k(   31) = (   0.0833333   0.0833333   0.2500000), wk =   0.0277778
        k(   32) = (   0.0833333   0.0833333   0.3333333), wk =   0.0277778
        k(   33) = (   0.0833333   0.0833333   0.4166667), wk =   0.0277778
        k(   34) = (   0.0833333   0.0833333  -0.5000000), wk =   0.0138889
        k(   35) = (   0.0833333   0.1666667   0.1666667), wk =   0.0277778
        k(   36) = (   0.0833333   0.1666667   0.2500000), wk =   0.0555556
        k(   37) = (   0.0833333   0.1666667   0.3333333), wk =   0.0555556
        k(   38) = (   0.0833333   0.1666667   0.4166667), wk =   0.0555556
        k(   39) = (   0.0833333   0.1666667  -0.5000000), wk =   0.0277778
        k(   40) = (   0.0833333   0.2500000   0.2500000), wk =   0.0277778
        k(   41) = (   0.0833333   0.2500000   0.3333333), wk =   0.0555556
        k(   42) = (   0.0833333   0.2500000   0.4166667), wk =   0.0555556
        k(   43) = (   0.0833333   0.2500000  -0.5000000), wk =   0.0277778
        k(   44) = (   0.0833333   0.3333333   0.3333333), wk =   0.0277778
        k(   45) = (   0.0833333   0.3333333   0.4166667), wk =   0.0555556
        k(   46) = (   0.0833333   0.3333333  -0.5000000), wk =   0.0277778
        k(   47) = (   0.0833333   0.4166667   0.4166667), wk =   0.0277778
        k(   48) = (   0.0833333   0.4166667  -0.5000000), wk =   0.0277778
        k(   49) = (   0.0833333  -0.5000000  -0.5000000), wk =   0.0069444
        k(   50) = (   0.1666667   0.1666667   0.1666667), wk =   0.0092593
        k(   51) = (   0.1666667   0.1666667   0.2500000), wk =   0.0277778
        k(   52) = (   0.1666667   0.1666667   0.3333333), wk =   0.0277778
        k(   53) = (   0.1666667   0.1666667   0.4166667), wk =   0.0277778
        k(   54) = (   0.1666667   0.1666667  -0.5000000), wk =   0.0138889
        k(   55) = (   0.1666667   0.2500000   0.2500000), wk =   0.0277778
        k(   56) = (   0.1666667   0.2500000   0.3333333), wk =   0.0555556
        k(   57) = (   0.1666667   0.2500000   0.4166667), wk =   0.0555556
        k(   58) = (   0.1666667   0.2500000  -0.5000000), wk =   0.0277778
        k(   59) = (   0.1666667   0.3333333   0.3333333), wk =   0.0277778
        k(   60) = (   0.1666667   0.3333333   0.4166667), wk =   0.0555556
        k(   61) = (   0.1666667   0.3333333  -0.5000000), wk =   0.0277778
        k(   62) = (   0.1666667   0.4166667   0.4166667), wk =   0.0277778
        k(   63) = (   0.1666667   0.4166667  -0.5000000), wk =   0.0277778
        k(   64) = (   0.1666667  -0.5000000  -0.5000000), wk =   0.0069444
        k(   65) = (   0.2500000   0.2500000   0.2500000), wk =   0.0092593
        k(   66) = (   0.2500000   0.2500000   0.3333333), wk =   0.0277778
        k(   67) = (   0.2500000   0.2500000   0.4166667), wk =   0.0277778
        k(   68) = (   0.2500000   0.2500000  -0.5000000), wk =   0.0138889
        k(   69) = (   0.2500000   0.3333333   0.3333333), wk =   0.0277778
        k(   70) = (   0.2500000   0.3333333   0.4166667), wk =   0.0555556
        k(   71) = (   0.2500000   0.3333333  -0.5000000), wk =   0.0277778
        k(   72) = (   0.2500000   0.4166667   0.4166667), wk =   0.0277778
        k(   73) = (   0.2500000   0.4166667  -0.5000000), wk =   0.0277778
        k(   74) = (   0.2500000  -0.5000000  -0.5000000), wk =   0.0069444
        k(   75) = (   0.3333333   0.3333333   0.3333333), wk =   0.0092593
        k(   76) = (   0.3333333   0.3333333   0.4166667), wk =   0.0277778
        k(   77) = (   0.3333333   0.3333333  -0.5000000), wk =   0.0138889
        k(   78) = (   0.3333333   0.4166667   0.4166667), wk =   0.0277778
        k(   79) = (   0.3333333   0.4166667  -0.5000000), wk =   0.0277778
        k(   80) = (   0.3333333  -0.5000000  -0.5000000), wk =   0.0069444
        k(   81) = (   0.4166667   0.4166667   0.4166667), wk =   0.0092593
        k(   82) = (   0.4166667   0.4166667  -0.5000000), wk =   0.0138889
        k(   83) = (   0.4166667  -0.5000000  -0.5000000), wk =   0.0069444
        k(   84) = (  -0.5000000  -0.5000000  -0.5000000), wk =   0.0011574

                       cryst. coord.
        k(    1) = (   0.0000000   0.0000000   0.0000000), wk =   0.0011574
        k(    2) = (   0.0000000   0.0000000   0.0833333), wk =   0.0069444
        k(    3) = (   0.0000000   0.0000000   0.1666667), wk =   0.0069444
        k(    4) = (   0.0000000   0.0000000   0.2500000), wk =   0.0069444
        k(    5) = (   0.0000000   0.0000000   0.3333333), wk =   0.0069444
        k(    6) = (   0.0000000   0.0000000   0.4166667), wk =   0.0069444
        k(    7) = (   0.0000000   0.0000000  -0.5000000), wk =   0.0034722
        k(    8) = (   0.0000000   0.0833333   0.0833333), wk =   0.0138889
        k(    9) = (   0.0000000   0.0833333   0.1666667), wk =   0.0277778
        k(   10) = (   0.0000000   0.0833333   0.2500000), wk =   0.0277778
        k(   11) = (   0.0000000   0.0833333   0.3333333), wk =   0.0277778
        k(   12) = (   0.0000000   0.0833333   0.4166667), wk =   0.0277778
        k(   13) = (   0.0000000   0.0833333  -0.5000000), wk =   0.0138889
        k(   14) = (   0.0000000   0.1666667   0.1666667), wk =   0.0138889
        k(   15) = (   0.0000000   0.1666667   0.2500000), wk =   0.0277778
        k(   16) = (   0.0000000   0.1666667   0.3333333), wk =   0.0277778
        k(   17) = (   0.0000000   0.1666667   0.4166667), wk =   0.0277778
        k(   18) = (   0.0000000   0.1666667  -0.5000000), wk =   0.0138889
        k(   19) = (   0.0000000   0.2500000   0.2500000), wk =   0.0138889
        k(   20) = (   0.0000000   0.2500000   0.3333333), wk =   0.0277778
        k(   21) = (   0.0000000   0.2500000   0.4166667), wk =   0.0277778
        k(   22) = (   0.0000000   0.2500000  -0.5000000), wk =   0.0138889
        k(   23) = (   0.0000000   0.3333333   0.3333333), wk =   0.0138889
        k(   24) = (   0.0000000   0.3333333   0.4166667), wk =   0.0277778
        k(   25) = (   0.0000000   0.3333333  -0.5000000), wk =   0.0138889
        k(   26) = (   0.0000000   0.4166667   0.4166667), wk =   0.0138889
        k(   27) = (   0.0000000   0.4166667  -0.5000000), wk =   0.0138889
        k(   28) = (   0.0000000  -0.5000000  -0.5000000), wk =   0.0034722
        k(   29) = (   0.0833333   0.0833333   0.0833333), wk =   0.0092593
        k(   30) = (   0.0833333   0.0833333   0.1666667), wk =   0.0277778
        k(   31) = (   0.0833333   0.0833333   0.2500000), wk =   0.0277778
        k(   32) = (   0.0833333   0.0833333   0.3333333), wk =   0.0277778
        k(   33) = (   0.0833333   0.0833333   0.4166667), wk =   0.0277778
        k(   34) = (   0.0833333   0.0833333  -0.5000000), wk =   0.0138889
        k(   35) = (   0.0833333   0.1666667   0.1666667), wk =   0.0277778
        k(   36) = (   0.0833333   0.1666667   0.2500000), wk =   0.0555556
        k(   37) = (   0.0833333   0.1666667   0.3333333), wk =   0.0555556
        k(   38) = (   0.0833333   0.1666667   0.4166667), wk =   0.0555556
        k(   39) = (   0.0833333   0.1666667  -0.5000000), wk =   0.0277778
        k(   40) = (   0.0833333   0.2500000   0.2500000), wk =   0.0277778
        k(   41) = (   0.0833333   0.2500000   0.3333333), wk =   0.0555556
        k(   42) = (   0.0833333   0.2500000   0.4166667), wk =   0.0555556
        k(   43) = (   0.0833333   0.2500000  -0.5000000), wk =   0.0277778
        k(   44) = (   0.0833333   0.3333333   0.3333333), wk =   0.0277778
        k(   45) = (   0.0833333   0.3333333   0.4166667), wk =   0.0555556
        k(   46) = (   0.0833333   0.3333333  -0.5000000), wk =   0.0277778
        k(   47) = (   0.0833333   0.4166667   0.4166667), wk =   0.0277778
        k(   48) = (   0.0833333   0.4166667  -0.5000000), wk =   0.0277778
        k(   49) = (   0.0833333  -0.5000000  -0.5000000), wk =   0.0069444
        k(   50) = (   0.1666667   0.1666667   0.1666667), wk =   0.0092593
        k(   51) = (   0.1666667   0.1666667   0.2500000), wk =   0.0277778
        k(   52) = (   0.1666667   0.1666667   0.3333333), wk =   0.0277778
        k(   53) = (   0.1666667   0.1666667   0.4166667), wk =   0.0277778
        k(   54) = (   0.1666667   0.1666667  -0.5000000), wk =   0.0138889
        k(   55) = (   0.1666667   0.2500000   0.2500000), wk =   0.0277778
        k(   56) = (   0.1666667   0.2500000   0.3333333), wk =   0.0555556
        k(   57) = (   0.1666667   0.2500000   0.4166667), wk =   0.0555556
        k(   58) = (   0.1666667   0.2500000  -0.5000000), wk =   0.0277778
        k(   59) = (   0.1666667   0.3333333   0.3333333), wk =   0.0277778
        k(   60) = (   0.1666667   0.3333333   0.4166667), wk =   0.0555556
        k(   61) = (   0.1666667   0.3333333  -0.5000000), wk =   0.0277778
        k(   62) = (   0.1666667   0.4166667   0.4166667), wk =   0.0277778
        k(   63) = (   0.1666667   0.4166667  -0.5000000), wk =   0.0277778
        k(   64) = (   0.1666667  -0.5000000  -0.5000000), wk =   0.0069444
        k(   65) = (   0.2500000   0.2500000   0.2500000), wk =   0.0092593
        k(   66) = (   0.2500000   0.2500000   0.3333333), wk =   0.0277778
        k(   67) = (   0.2500000   0.2500000   0.4166667), wk =   0.0277778
        k(   68) = (   0.2500000   0.2500000  -0.5000000), wk =   0.0138889
        k(   69) = (   0.2500000   0.3333333   0.3333333), wk =   0.0277778
        k(   70) = (   0.2500000   0.3333333   0.4166667), wk =   0.0555556
        k(   71) = (   0.2500000   0.3333333  -0.5000000), wk =   0.0277778
        k(   72) = (   0.2500000   0.4166667   0.4166667), wk =   0.0277778
        k(   73) = (   0.2500000   0.4166667  -0.5000000), wk =   0.0277778
        k(   74) = (   0.2500000  -0.5000000  -0.5000000), wk =   0.0069444
        k(   75) = (   0.3333333   0.3333333   0.3333333), wk =   0.0092593
        k(   76) = (   0.3333333   0.3333333   0.4166667), wk =   0.0277778
        k(   77) = (   0.3333333   0.3333333  -0.5000000), wk =   0.0138889
        k(   78) = (   0.3333333   0.4166667   0.4166667), wk =   0.0277778
        k(   79) = (   0.3333333   0.4166667  -0.5000000), wk =   0.0277778
        k(   80) = (   0.3333333  -0.5000000  -0.5000000), wk =   0.0069444
        k(   81) = (   0.4166667   0.4166667   0.4166667), wk =   0.0092593
        k(   82) = (   0.4166667   0.4166667  -0.5000000), wk =   0.0138889
        k(   83) = (   0.4166667  -0.5000000  -0.5000000), wk =   0.0069444
        k(   84) = (  -0.5000000  -0.5000000  -0.5000000), wk =   0.0011574

     Dense  grid:    18325 G-vectors     FFT dimensions: (  36,  36,  36)

     Smooth grid:     6451 G-vectors     FFT dimensions: (  24,  24,  24)

     Dynamical RAM for                 wfc:       0.21 MB

     Dynamical RAM for     wfc (w. buffer):      17.86 MB

     Dynamical RAM for           str. fact:       0.56 MB

     Dynamical RAM for           local pot:       0.00 MB

     Dynamical RAM for          nlocal pot:       0.32 MB

     Dynamical RAM for                qrad:       3.21 MB

     Dynamical RAM for          rho,v,vnew:       1.91 MB

     Dynamical RAM for               rhoin:       0.64 MB

     Dynamical RAM for            rho*nmix:       4.47 MB

     Dynamical RAM for           G-vectors:       1.10 MB

     Dynamical RAM for          h,s,v(r/c):       0.05 MB

     Dynamical RAM for          <psi|beta>:       0.01 MB

     Dynamical RAM for                 psi:       0.42 MB

     Dynamical RAM for                hpsi:       0.42 MB

     Dynamical RAM for                spsi:       0.42 MB

     Dynamical RAM for      wfcinit/wfcrot:       0.43 MB

     Dynamical RAM for           addusdens:      52.29 MB

     Dynamical RAM for          addusforce:      52.43 MB

     Dynamical RAM for         addusstress:      56.20 MB

     Estimated static dynamical RAM per process >      28.21 MB

     Estimated max dynamical RAM per process >      88.89 MB

     Check: negative core charge=   -0.000003

     Initial potential from superposition of free atoms

     starting charge      25.9999, renormalised to      26.0000
     Starting wfcs are   17 randomized atomic wfcs
     Checking if some PAW data can be deallocated... 

     total cpu time spent up to now is        3.8 secs

     Self-consistent Calculation

     iteration #  1     ecut=    50.00 Ry     beta= 0.40
     Davidson diagonalization with overlap

---- Real-time Memory Report at c_bands before calling an iterative solver
            98 MiB given to the printing process from OS
             0 MiB allocation reported by mallinfo(arena+hblkhd)
          4444 MiB available memory on the node where the printing process lives
------------------
     ethr =  1.00E-02,  avg # of iterations =  2.8

     total cpu time spent up to now is       11.2 secs

     WARNING: integrated charge=    26.00002302, expected=    26.00000000

     total energy              =    -503.03468268 Ry
     estimated scf accuracy    <       0.47834876 Ry

     iteration #  2     ecut=    50.00 Ry     beta= 0.40
     Davidson diagonalization with overlap

---- Real-time Memory Report at c_bands before calling an iterative solver
           131 MiB given to the printing process from OS
             0 MiB allocation reported by mallinfo(arena+hblkhd)
          4424 MiB available memory on the node where the printing process lives
------------------
     ethr =  1.84E-03,  avg # of iterations =  2.2
     Minimization algorithm failed to find Fermi energy: reverting to bisection
     Possible cause: smearing is larger than the electronic band-gap.

     total cpu time spent up to now is       17.7 secs

     WARNING: integrated charge=    26.00001638, expected=    26.00000000

     total energy              =    -503.16495902 Ry
     estimated scf accuracy    <       0.08792771 Ry

     iteration #  3     ecut=    50.00 Ry     beta= 0.40
     Davidson diagonalization with overlap

---- Real-time Memory Report at c_bands before calling an iterative solver
           132 MiB given to the printing process from OS
             0 MiB allocation reported by mallinfo(arena+hblkhd)
          4421 MiB available memory on the node where the printing process lives
------------------
     ethr =  3.38E-04,  avg # of iterations =  2.0

     total cpu time spent up to now is       42.8 secs

     WARNING: integrated charge=    26.00513591, expected=    26.00000000

     total energy              =    -503.17070599 Ry
     estimated scf accuracy    <       0.00522855 Ry

     iteration #  4     ecut=    50.00 Ry     beta= 0.40
     Davidson diagonalization with overlap

---- Real-time Memory Report at c_bands before calling an iterative solver
           132 MiB given to the printing process from OS
             0 MiB allocation reported by mallinfo(arena+hblkhd)
          4419 MiB available memory on the node where the printing process lives
------------------
     ethr =  2.01E-05,  avg # of iterations =  2.2

     total cpu time spent up to now is       64.3 secs

     WARNING: integrated charge=    26.00836835, expected=    26.00000000

     total energy              =    -503.17062620 Ry
     estimated scf accuracy    <       0.00061932 Ry

     iteration #  5     ecut=    50.00 Ry     beta= 0.40
     Davidson diagonalization with overlap

---- Real-time Memory Report at c_bands before calling an iterative solver
           132 MiB given to the printing process from OS
             0 MiB allocation reported by mallinfo(arena+hblkhd)
          4418 MiB available memory on the node where the printing process lives
------------------
     ethr =  2.38E-06,  avg # of iterations =  2.3

     total cpu time spent up to now is       73.5 secs

     WARNING: integrated charge=    26.00905161, expected=    26.00000000

     total energy              =    -503.17054962 Ry
     estimated scf accuracy    <       0.00000803 Ry

     iteration #  6     ecut=    50.00 Ry     beta= 0.40
     Davidson diagonalization with overlap

---- Real-time Memory Report at c_bands before calling an iterative solver
           132 MiB given to the printing process from OS
             0 MiB allocation reported by mallinfo(arena+hblkhd)
          4416 MiB available memory on the node where the printing process lives
------------------
     ethr =  3.09E-08,  avg # of iterations =  2.0

     total cpu time spent up to now is       94.6 secs

     WARNING: integrated charge=    26.00929657, expected=    26.00000000

     total energy              =    -503.17058604 Ry
     estimated scf accuracy    <       0.00000829 Ry

     iteration #  7     ecut=    50.00 Ry     beta= 0.40
     Davidson diagonalization with overlap

---- Real-time Memory Report at c_bands before calling an iterative solver
           132 MiB given to the printing process from OS
             0 MiB allocation reported by mallinfo(arena+hblkhd)
          4414 MiB available memory on the node where the printing process lives
------------------
     ethr =  3.09E-08,  avg # of iterations =  2.0

     total cpu time spent up to now is      102.2 secs

     WARNING: integrated charge=    26.00933837, expected=    26.00000000

     total energy              =    -503.17057762 Ry
     estimated scf accuracy    <       0.00000056 Ry

     iteration #  8     ecut=    50.00 Ry     beta= 0.40
     Davidson diagonalization with overlap

---- Real-time Memory Report at c_bands before calling an iterative solver
           132 MiB given to the printing process from OS
             0 MiB allocation reported by mallinfo(arena+hblkhd)
          4413 MiB available memory on the node where the printing process lives
------------------
     ethr =  2.17E-09,  avg # of iterations =  2.0

     total cpu time spent up to now is      119.9 secs

     WARNING: integrated charge=    26.00931526, expected=    26.00000000

     total energy              =    -503.17057366 Ry
     estimated scf accuracy    <       0.00000004 Ry

     iteration #  9     ecut=    50.00 Ry     beta= 0.40
     Davidson diagonalization with overlap

---- Real-time Memory Report at c_bands before calling an iterative solver
           132 MiB given to the printing process from OS
             0 MiB allocation reported by mallinfo(arena+hblkhd)
          4415 MiB available memory on the node where the printing process lives
------------------
     ethr =  1.38E-10,  avg # of iterations =  2.0

     total cpu time spent up to now is      130.2 secs

     End of self-consistent calculation

          k = 0.0000 0.0000 0.0000 (   799 PWs)   bands (ev):

  -112.8925 -67.0736 -67.0736 -67.0736  -6.3273   5.4532   5.4532   6.4553
     6.4553   6.4553  10.7497  10.7497  10.7497  10.8428  25.7821  25.7821
    28.7697

     occupation numbers 
     1.0000   1.0000   1.0000   1.0000   1.0000   1.0000   1.0000   1.0000
     1.0000   1.0000   1.0000   1.0000   1.0000   1.0000   0.0000   0.0000
     0.0000

          k = 0.0000 0.0000 0.0833 (   795 PWs)   bands (ev):

  -112.8924 -67.0746 -67.0735 -67.0735  -6.2623   5.4613   5.4678   6.4139
     6.4139   6.4574   9.5892  10.8264  10.8264  11.9506  25.0694  25.8828
    28.6864

     occupation numbers 
     1.0000   1.0000   1.0000   1.0000   1.0000   1.0000   1.0000   1.0000
     1.0000   1.0000   1.0000   1.0000   1.0000   1.0251   0.0000   0.0000
     0.0000

          k = 0.0000 0.0000 0.1667 (   807 PWs)   bands (ev):

  -112.8923 -67.0776 -67.0734 -67.0734  -6.0775   5.4608   5.4836   6.3059
     6.3059   6.4632   8.4635  11.0330  11.0330  13.0092  23.6575  26.1863
    28.4370

     occupation numbers 
     1.0000   1.0000   1.0000   1.0000   1.0000   1.0000   1.0000   1.0000
     1.0000   1.0000   1.0000   1.0000   1.0000   0.0000   0.0000   0.0000
     0.0000

          k = 0.0000 0.0000 0.2500 (   800 PWs)   bands (ev):

  -112.8920 -67.0813 -67.0731 -67.0731  -5.8059   5.2677   5.5141   6.1693
     6.1693   6.4711   7.6602  11.3108  11.3108  14.0002  22.0569  26.6954
    28.0499

     occupation numbers 
     1.0000   1.0000   1.0000   1.0000   1.0000   1.0000   1.0000   1.0000
     1.0000   1.0000   1.0000   1.0000   1.0000   0.0000   0.0000   0.0000
     0.0000

          k = 0.0000 0.0000 0.3333 (   804 PWs)   bands (ev):

  -112.8918 -67.0851 -67.0729 -67.0729  -5.5070   4.7915   5.5448   6.0429
     6.0429   6.4790   7.3466  11.5868  11.5868  14.9860  20.4472  27.6178
    27.6180

     occupation numbers 
     1.0000   1.0000   1.0000   1.0000   1.0000   1.0000   1.0000   1.0000
     1.0000   1.0000   1.0000   1.0000   1.0000   0.0000   0.0000   0.0000
     0.0000

          k = 0.0000 0.0000 0.4167 (   816 PWs)   bands (ev):

  -112.8916 -67.0880 -67.0728 -67.0728  -5.2665   4.3057   5.5673   5.9557
     5.9557   6.4848   7.3160  11.7893  11.7893  16.0109  18.9659  27.2791
    27.2792

     occupation numbers 
     1.0000   1.0000   1.0000   1.0000   1.0000   1.0000   1.0000   1.0000
     1.0000   1.0000   1.0000   1.0014   1.0014   0.0000   0.0000   0.0000
     0.0000

          k = 0.0000 0.0000-0.5000 (   820 PWs)   bands (ev):

  -112.8916 -67.0891 -67.0727 -67.0727  -5.1728   4.1102   5.5756   5.9248
     5.9248   6.4869   7.3303  11.8638  11.8638  16.7528  18.0574  27.1510
    27.1510

     occupation numbers 
     1.0000   1.0000   1.0000   1.0000   1.0000   1.0000   1.0000   1.0000
     1.0000   1.0000   1.0000   1.0064   1.0064   0.0000   0.0000   0.0000
     0.0000

          k = 0.0000 0.0833 0.0833 (   791 PWs)   bands (ev):

  -112.8923 -67.0746 -67.0745 -67.0734  -6.1983   5.4710   5.4855   6.3685
     6.3968   6.4386   9.2855  10.5372  10.8971  12.5654  24.9428  25.4169
    28.6243

     occupation numbers 
     1.0000   1.0000   1.0000   1.0000   1.0000   1.0000   1.0000   1.0000
     1.0000   1.0000   1.0000   1.0000   1.0000   0.0465   0.0000   0.0000
     0.0000

          k = 0.0000 0.0833 0.1667 (   803 PWs)   bands (ev):

  -112.8922 -67.0774 -67.0744 -67.0733  -6.0169   5.4747   5.5106   6.2549
     6.3039   6.4375   8.4550  10.5604  11.0878  13.4998  23.7043  25.4293
    28.4313

     occupation numbers 
     1.0000   1.0000   1.0000   1.0000   1.0000   1.0000   1.0000   1.0000
     1.0000   1.0000   1.0000   1.0000   1.0000   0.0000   0.0000   0.0000
     0.0000

          k = 0.0000 0.0833 0.2500 (   813 PWs)   bands (ev):

  -112.8920 -67.0813 -67.0743 -67.0731  -5.7507   5.3079   5.5359   6.1327
     6.1758   6.4467   7.7071  10.8126  11.3448  14.4171  22.0845  25.6700
    28.1155

     occupation numbers 
     1.0000   1.0000   1.0000   1.0000   1.0000   1.0000   1.0000   1.0000
     1.0000   1.0000   1.0000   1.0000   1.0000   0.0000   0.0000   0.0000
     0.0000

          k = 0.0000 0.0833 0.3333 (   814 PWs)   bands (ev):

  -112.8917 -67.0851 -67.0740 -67.0729  -5.4584   4.8640   5.5683   6.0320
     6.0557   6.4568   7.3732  11.1059  11.6002  15.3359  20.4488  25.9057
    27.7467

     occupation numbers 
     1.0000   1.0000   1.0000   1.0000   1.0000   1.0000   1.0000   1.0000
     1.0000   1.0000   1.0000   1.0000   1.0000   0.0000   0.0000   0.0000
     0.0000

          k = 0.0000 0.0833 0.4167 (   815 PWs)   bands (ev):

  -112.8915 -67.0879 -67.0738 -67.0727  -5.2237   4.4050   5.5942   5.9528
     5.9723   6.4644   7.3242  11.3351  11.7875  16.3201  18.9384  26.0364
    27.4485

     occupation numbers 
     1.0000   1.0000   1.0000   1.0000   1.0000   1.0000   1.0000   1.0000
     1.0000   1.0000   1.0000   1.0000   1.0013   0.0000   0.0000   0.0000
     0.0000

          k = 0.0000 0.0833-0.5000 (   816 PWs)   bands (ev):

  -112.8915 -67.0889 -67.0738 -67.0726  -5.1326   4.2186   5.6044   5.9221
     5.9427   6.4671   7.3334  11.4220  11.8563  17.1785  17.8869  26.0672
    27.3344

     occupation numbers 
     1.0000   1.0000   1.0000   1.0000   1.0000   1.0000   1.0000   1.0000
     1.0000   1.0000   1.0000   1.0000   1.0055   0.0000   0.0000   0.0000
     0.0000

          k = 0.0000 0.1667 0.1667 (   806 PWs)   bands (ev):

  -112.8920 -67.0774 -67.0771 -67.0732  -5.8455   5.4720   5.5864   6.1365
     6.2761   6.3925   8.2754   9.9696  11.2362  14.3407  23.7960  23.9036
    28.3941

     occupation numbers 
     1.0000   1.0000   1.0000   1.0000   1.0000   1.0000   1.0000   1.0000
     1.0000   1.0000   1.0000   1.0000   1.0000   0.0000   0.0000   0.0000
     0.0000

          k = 0.0000 0.1667 0.2500 (   810 PWs)   bands (ev):

  -112.8918 -67.0811 -67.0769 -67.0730  -5.5949   5.3683   5.6268   6.0491
     6.1895   6.3858   7.8035   9.8927  11.4368  15.1587  22.1228  24.0166
    28.2880

     occupation numbers 
     1.0000   1.0000   1.0000   1.0000   1.0000   1.0000   1.0000   1.0000
     1.0000   1.0000   1.0000   1.0000   1.0000   0.0000   0.0000   0.0000
     0.0000

          k = 0.0000 0.1667 0.3333 (   808 PWs)   bands (ev):

  -112.8915 -67.0848 -67.0766 -67.0727  -5.3217   5.0468   5.6493   6.0083
     6.0902   6.3978   7.4469  10.1060  11.6361  15.9317  20.4625  24.2052
    28.1146

     occupation numbers 
     1.0000   1.0000   1.0000   1.0000   1.0000   1.0000   1.0000   1.0000
     1.0000   1.0000   1.0000   1.0000   1.0000   0.0000   0.0000   0.0000
     0.0000

          k = 0.0000 0.1667 0.4167 (   817 PWs)   bands (ev):

  -112.8914 -67.0876 -67.0765 -67.0726  -5.1040   4.6825   5.6759   5.9510
     6.0180   6.4093   7.3472  10.3370  11.7820  16.7190  19.0274  24.3531
    27.9460

     occupation numbers 
     1.0000   1.0000   1.0000   1.0000   1.0000   1.0000   1.0000   1.0000
     1.0000   1.0000   1.0000   1.0000   1.0012   0.0000   0.0000   0.0000
     0.0000

          k = 0.0000 0.1667-0.5000 (   812 PWs)   bands (ev):

  -112.8913 -67.0886 -67.0764 -67.0725  -5.0199   4.5281   5.6890   5.9211
     5.9920   6.4138   7.3413  10.4338  11.8355  17.3660  18.1409  24.4100
    27.8760

     occupation numbers 
     1.0000   1.0000   1.0000   1.0000   1.0000   1.0000   1.0000   1.0000
     1.0000   1.0000   1.0000   1.0000   1.0037   0.0000   0.0000   0.0000
     0.0000

          k = 0.0000 0.2500 0.2500 (   812 PWs)   bands (ev):

  -112.8915 -67.0808 -67.0806 -67.0727  -5.3690   5.3507   5.7664   5.9842
     6.1848   6.3294   7.7875   9.2059  11.5609  15.8083  21.7066  22.8834
    28.4983

     occupation numbers 
     1.0000   1.0000   1.0000   1.0000   1.0000   1.0000   1.0000   1.0000
     1.0000   1.0000   1.0000   1.0000   1.0000   0.0000   0.0000   0.0000
     0.0000

          k = 0.0000 0.2500 0.3333 (   813 PWs)   bands (ev):

  -112.8913 -67.0845 -67.0804 -67.0724  -5.1250   5.2325   5.8195   5.9913
     6.1345   6.3223   7.5447   9.0901  11.6838  16.2521  20.4980  22.8620
    28.6613

     occupation numbers 
     1.0000   1.0000   1.0000   1.0000   1.0000   1.0000   1.0000   1.0000
     1.0000   1.0000   1.0000   1.0000   1.0001   0.0000   0.0000   0.0000
     0.0000

          k = 0.0000 0.2500 0.4167 (   812 PWs)   bands (ev):

  -112.8911 -67.0873 -67.0802 -67.0723  -4.9327   5.0628   5.8279   5.9682
     6.0813   6.3356   7.3805   9.2416  11.7733  16.4694  19.5832  23.0195
    28.7366

     occupation numbers 
     1.0000   1.0000   1.0000   1.0000   1.0000   1.0000   1.0000   1.0000
     1.0000   1.0000   1.0000   1.0000   1.0010   0.0000   0.0000   0.0000
     0.0000

          k = 0.0000 0.2500-0.5000 (   814 PWs)   bands (ev):

  -112.8911 -67.0883 -67.0801 -67.0723  -4.8590   4.9790   5.8331   5.9415
     6.0606   6.3421   7.3483   9.3286  11.8060  16.5199  19.2645  23.0946
    28.7527

     occupation numbers 
     1.0000   1.0000   1.0000   1.0000   1.0000   1.0000   1.0000   1.0000
     1.0000   1.0000   1.0000   1.0000   1.0020   0.0000   0.0000   0.0000
     0.0000

          k = 0.0000 0.3333 0.3333 (   812 PWs)   bands (ev):

  -112.8911 -67.0842 -67.0841 -67.0722  -4.9150   5.3379   5.9859   6.0368
     6.1623   6.2660   7.5704   8.4047  11.7301  16.1068  20.4957  22.2121
    29.2665

     occupation numbers 
     1.0000   1.0000   1.0000   1.0000   1.0000   1.0000   1.0000   1.0000
     1.0000   1.0000   1.0000   1.0000   1.0003   0.0000   0.0000   0.0000
     0.0000

          k = 0.0000 0.3333 0.4167 (   810 PWs)   bands (ev):

  -112.8909 -67.0869 -67.0840 -67.0720  -4.7513   5.3932   6.0001   6.1134
     6.1450   6.2640   7.4136   8.2883  11.7632  15.7174  20.4116  22.1730
    28.6690

     occupation numbers 
     1.0000   1.0000   1.0000   1.0000   1.0000   1.0000   1.0000   1.0000
     1.0000   1.0000   1.0000   1.0000   1.0008   0.0000   0.0000   0.0000
     0.0000

          k = 0.0000 0.3333-0.5000 (   814 PWs)   bands (ev):

  -112.8908 -67.0879 -67.0839 -67.0719  -4.6891   5.4166   6.0108   6.0874
     6.1307   6.2716   7.3426   8.3316  11.7752  15.5183  20.3657  22.2441
    28.4023

     occupation numbers 
     1.0000   1.0000   1.0000   1.0000   1.0000   1.0000   1.0000   1.0000
     1.0000   1.0000   1.0000   1.0000   1.0010   0.0000   0.0000   0.0000
     0.0000

          k = 0.0000 0.4167 0.4167 (   806 PWs)   bands (ev):

  -112.8907 -67.0867 -67.0866 -67.0717  -4.6111   5.5827   6.0816   6.1855
     6.2194   6.3974   7.3976   7.6846  11.7549  14.9826  21.0886  21.7893
    27.9338

     occupation numbers 
     1.0000   1.0000   1.0000   1.0000   1.0000   1.0000   1.0000   1.0000
     1.0000   1.0000   1.0000   1.0000   1.0006   0.0000   0.0000   0.0000
     0.0000

          k = 0.0000 0.4167-0.5000 (   812 PWs)   bands (ev):

  -112.8906 -67.0877 -67.0866 -67.0717  -4.5581   5.6484   6.1429   6.1829
     6.2207   6.4743   7.3057   7.5804  11.7517  14.6792  21.2650  21.7867
    27.5996

     occupation numbers 
     1.0000   1.0000   1.0000   1.0000   1.0000   1.0000   1.0000   1.0000
     1.0000   1.0000   1.0000   1.0000   1.0006   0.0000   0.0000   0.0000
     0.0000

          k = 0.0000-0.5000-0.5000 (   784 PWs)   bands (ev):

  -112.8905 -67.0874 -67.0874 -67.0714  -4.5086   5.7095   6.2024   6.2024
     6.2439   6.6938   7.2622   7.2622  11.7429  14.3451  21.6434  21.6434
    27.2260

     occupation numbers 
     1.0000   1.0000   1.0000   1.0000   1.0000   1.0000   1.0000   1.0000
     1.0000   1.0000   1.0000   1.0000   1.0005   0.0000   0.0000   0.0000
     0.0000

          k = 0.0833 0.0833 0.0833 (   799 PWs)   bands (ev):

  -112.8923 -67.0745 -67.0745 -67.0745  -6.1355   5.4941   5.4941   6.3340
     6.3946   6.3946   9.0791  10.6185  10.6185  13.0519  24.9887  24.9887
    27.6547

     occupation numbers 
     1.0000   1.0000   1.0000   1.0000   1.0000   1.0000   1.0000   1.0000
     1.0000   1.0000   1.0000   1.0000   1.0000   0.0000   0.0000   0.0000
     0.0000

          k = 0.0833 0.0833 0.1667 (   804 PWs)   bands (ev):

  -112.8921 -67.0773 -67.0744 -67.0744  -5.9573   5.5118   5.5179   6.2376
     6.2802   6.4029   8.4282  10.4941  10.8376  13.8943  23.7418  25.1112
    27.3423

     occupation numbers 
     1.0000   1.0000   1.0000   1.0000   1.0000   1.0000   1.0000   1.0000
     1.0000   1.0000   1.0000   1.0000   1.0000   0.0000   0.0000   0.0000
     0.0000

          k = 0.0833 0.0833 0.2500 (   812 PWs)   bands (ev):

  -112.8919 -67.0812 -67.0742 -67.0741  -5.6962   5.3561   5.5518   6.1352
     6.1489   6.4166   7.7414  10.6508  11.1325  14.7451  22.1251  25.2612
    27.3349

     occupation numbers 
     1.0000   1.0000   1.0000   1.0000   1.0000   1.0000   1.0000   1.0000
     1.0000   1.0000   1.0000   1.0000   1.0000   0.0000   0.0000   0.0000
     0.0000

          k = 0.0833 0.0833 0.3333 (   813 PWs)   bands (ev):

  -112.8917 -67.0850 -67.0739 -67.0738  -5.4101   4.9377   5.5885   5.9988
     6.0897   6.4308   7.4000  10.8894  11.4265  15.6006  20.4804  25.3631
    27.3542

     occupation numbers 
     1.0000   1.0000   1.0000   1.0000   1.0000   1.0000   1.0000   1.0000
     1.0000   1.0000   1.0000   1.0000   1.0000   0.0000   0.0000   0.0000
     0.0000

          k = 0.0833 0.0833 0.4167 (   815 PWs)   bands (ev):

  -112.8915 -67.0878 -67.0738 -67.0737  -5.1809   4.5015   5.6197   5.9005
     6.0352   6.4414   7.3381  11.0894  11.6433  16.5357  18.9645  25.3787
    27.3451

     occupation numbers 
     1.0000   1.0000   1.0000   1.0000   1.0000   1.0000   1.0000   1.0000
     1.0000   1.0000   1.0000   1.0000   1.0000   0.0000   0.0000   0.0000
     0.0000

          k = 0.0833 0.0833-0.5000 (   820 PWs)   bands (ev):

  -112.8914 -67.0889 -67.0737 -67.0736  -5.0921   4.3232   5.6333   5.8634
     6.0121   6.4453   7.3436  11.1673  11.7233  17.5383  17.7483  25.3666
    27.3351

     occupation numbers 
     1.0000   1.0000   1.0000   1.0000   1.0000   1.0000   1.0000   1.0000
     1.0000   1.0000   1.0000   1.0000   1.0003   0.0000   0.0000   0.0000
     0.0000

          k = 0.0833 0.1667 0.1667 (   809 PWs)   bands (ev):

  -112.8920 -67.0773 -67.0771 -67.0742  -5.7886   5.5193   5.5937   6.1446
     6.2499   6.3428   8.2324  10.0658  10.9086  14.6294  23.7670  23.9541
    26.9859

     occupation numbers 
     1.0000   1.0000   1.0000   1.0000   1.0000   1.0000   1.0000   1.0000
     1.0000   1.0000   1.0000   1.0000   1.0000   0.0000   0.0000   0.0000
     0.0000

          k = 0.0833 0.1667 0.2500 (   813 PWs)   bands (ev):

  -112.8917 -67.0810 -67.0769 -67.0740  -5.5423   5.4326   5.6297   6.0601
     6.1683   6.3433   7.7990   9.9407  11.1466  15.3634  22.2006  23.9388
    27.1526

     occupation numbers 
     1.0000   1.0000   1.0000   1.0000   1.0000   1.0000   1.0000   1.0000
     1.0000   1.0000   1.0000   1.0000   1.0000   0.0000   0.0000   0.0000
     0.0000

          k = 0.0833 0.1667 0.3333 (   811 PWs)   bands (ev):

  -112.8915 -67.0847 -67.0766 -67.0737  -5.2742   5.1226   5.6570   5.9612
     6.1381   6.3641   7.4686  10.0804  11.3974  16.0619  20.5624  23.9777
    27.4103

     occupation numbers 
     1.0000   1.0000   1.0000   1.0000   1.0000   1.0000   1.0000   1.0000
     1.0000   1.0000   1.0000   1.0000   1.0000   0.0000   0.0000   0.0000
     0.0000

          k = 0.0833 0.1667 0.4167 (   814 PWs)   bands (ev):

  -112.8913 -67.0875 -67.0764 -67.0735  -5.0609   4.7691   5.6931   5.8603
     6.1123   6.3817   7.3762  10.2578  11.5864  16.7746  19.1621  23.9628
    27.6099

     occupation numbers 
     1.0000   1.0000   1.0000   1.0000   1.0000   1.0000   1.0000   1.0000
     1.0000   1.0000   1.0000   1.0000   1.0000   0.0000   0.0000   0.0000
     0.0000

          k = 0.0833 0.1667-0.5000 (   810 PWs)   bands (ev):

  -112.8912 -67.0885 -67.0763 -67.0734  -4.9786   4.6192   5.7175   5.8120
     6.0968   6.3884   7.3721  10.3344  11.6569  17.3067  18.3766  23.9458
    27.6868

     occupation numbers 
     1.0000   1.0000   1.0000   1.0000   1.0000   1.0000   1.0000   1.0000
     1.0000   1.0000   1.0000   1.0000   1.0000   0.0000   0.0000   0.0000
     0.0000

          k = 0.0833 0.2500 0.2500 (   804 PWs)   bands (ev):

  -112.8915 -67.0807 -67.0805 -67.0736  -5.3192   5.4185   5.7579   5.9940
     6.1846   6.2815   7.7458   9.3281  11.2972  15.9152  21.8658  22.7675
    27.4241

     occupation numbers 
     1.0000   1.0000   1.0000   1.0000   1.0000   1.0000   1.0000   1.0000
     1.0000   1.0000   1.0000   1.0000   1.0000   0.0000   0.0000   0.0000
     0.0000

          k = 0.0833 0.2500 0.3333 (   806 PWs)   bands (ev):

  -112.8912 -67.0844 -67.0803 -67.0734  -5.0786   5.2998   5.8007   5.9439
     6.1898   6.2898   7.5444   9.1735  11.4637  16.2960  20.6324  22.6791
    27.8173

     occupation numbers 
     1.0000   1.0000   1.0000   1.0000   1.0000   1.0000   1.0000   1.0000
     1.0000   1.0000   1.0000   1.0000   1.0000   0.0000   0.0000   0.0000
     0.0000

          k = 0.0833 0.2500 0.4167 (   811 PWs)   bands (ev):

  -112.8911 -67.0872 -67.0801 -67.0732  -4.8891   5.1271   5.7991   5.8742
     6.1868   6.3146   7.4309   9.2633  11.5915  16.4925  19.6958  22.7069
    28.1834

     occupation numbers 
     1.0000   1.0000   1.0000   1.0000   1.0000   1.0000   1.0000   1.0000
     1.0000   1.0000   1.0000   1.0000   1.0000   0.0000   0.0000   0.0000
     0.0000

          k = 0.0833 0.2500-0.5000 (   806 PWs)   bands (ev):

  -112.8910 -67.0882 -67.0800 -67.0731  -4.8165   5.0418   5.7897   5.8517
     6.1766   6.3248   7.4152   9.3256  11.6399  16.5441  19.3650  22.7144
    28.3605

     occupation numbers 
     1.0000   1.0000   1.0000   1.0000   1.0000   1.0000   1.0000   1.0000
     1.0000   1.0000   1.0000   1.0000   1.0000   0.0000   0.0000   0.0000
     0.0000

          k = 0.0833 0.3333 0.3333 (   816 PWs)   bands (ev):

  -112.8910 -67.0842 -67.0841 -67.0732  -4.8697   5.3828   5.9366   5.9404
     6.2272   6.2845   7.5578   8.5647  11.5436  16.1434  20.5534  22.0146
    28.3385

     occupation numbers 
     1.0000   1.0000   1.0000   1.0000   1.0000   1.0000   1.0000   1.0000
     1.0000   1.0000   1.0000   1.0000   1.0000   0.0000   0.0000   0.0000
     0.0000

          k = 0.0833 0.3333 0.4167 (   810 PWs)   bands (ev):

  -112.8908 -67.0868 -67.0839 -67.0730  -4.7070   5.4242   5.8743   5.9806
     6.2388   6.3314   7.4930   8.4102  11.6067  15.7799  20.3843  21.9033
    28.6626

     occupation numbers 
     1.0000   1.0000   1.0000   1.0000   1.0000   1.0000   1.0000   1.0000
     1.0000   1.0000   1.0000   1.0000   1.0000   0.0000   0.0000   0.0000
     0.0000

          k = 0.0833 0.3333-0.5000 (   808 PWs)   bands (ev):

  -112.8907 -67.0879 -67.0837 -67.0729  -4.6451   5.4475   5.8159   5.9963
     6.2288   6.3442   7.4703   8.4229  11.6311  15.5927  20.3180  21.9166
    28.6199

     occupation numbers 
     1.0000   1.0000   1.0000   1.0000   1.0000   1.0000   1.0000   1.0000
     1.0000   1.0000   1.0000   1.0000   1.0000   0.0000   0.0000   0.0000
     0.0000

          k = 0.0833 0.4167 0.4167 (   812 PWs)   bands (ev):

  -112.8906 -67.0866 -67.0866 -67.0728  -4.5663   5.6036   5.9298   5.9897
     6.2418   6.4959   7.5389   7.9036  11.6199  15.0681  20.9208  21.5356
    28.1385

     occupation numbers 
     1.0000   1.0000   1.0000   1.0000   1.0000   1.0000   1.0000   1.0000
     1.0000   1.0000   1.0000   1.0000   1.0000   0.0000   0.0000   0.0000
     0.0000

          k = 0.0833 0.4167-0.5000 (   818 PWs)   bands (ev):

  -112.8906 -67.0877 -67.0866 -67.0727  -4.5130   5.6914   5.9024   6.0111
     6.2192   6.5638   7.5333   7.7951  11.6253  14.7699  21.0677  21.4984
    27.8670

     occupation numbers 
     1.0000   1.0000   1.0000   1.0000   1.0000   1.0000   1.0000   1.0000
     1.0000   1.0000   1.0000   1.0000   1.0000   0.0000   0.0000   0.0000
     0.0000

          k = 0.0833-0.5000-0.5000 (   812 PWs)   bands (ev):

  -112.8905 -67.0875 -67.0875 -67.0726  -4.4631   5.7741   5.9854   5.9854
     6.1688   6.6948   7.5693   7.5693  11.6232  14.4376  21.3699  21.3699
    27.5383

     occupation numbers 
     1.0000   1.0000   1.0000   1.0000   1.0000   1.0000   1.0000   1.0000
     1.0000   1.0000   1.0000   1.0000   1.0000   0.0000   0.0000   0.0000
     0.0000

          k = 0.1667 0.1667 0.1667 (   820 PWs)   bands (ev):

  -112.8918 -67.0772 -67.0770 -67.0770  -5.6278   5.6137   5.6137   6.1435
     6.2165   6.2165   8.0625  10.3240  10.3240  15.1991  23.6665  23.6665
    25.8159

     occupation numbers 
     1.0000   1.0000   1.0000   1.0000   1.0000   1.0000   1.0000   1.0000
     1.0000   1.0000   1.0000   1.0000   1.0000   0.0000   0.0000   0.0000
     0.0000

          k = 0.1667 0.1667 0.2500 (   809 PWs)   bands (ev):

  -112.8915 -67.0807 -67.0768 -67.0766  -5.3939   5.5778   5.6406   6.0618
     6.1503   6.2459   7.7523   9.9614  10.6725  15.7649  22.3327  23.4711
    25.9645

     occupation numbers 
     1.0000   1.0000   1.0000   1.0000   1.0000   1.0000   1.0000   1.0000
     1.0000   1.0000   1.0000   1.0000   1.0000   0.0000   0.0000   0.0000
     0.0000

          k = 0.1667 0.1667 0.3333 (   805 PWs)   bands (ev):

  -112.8913 -67.0845 -67.0764 -67.0763  -5.1405   5.3107   5.6667   5.9233
     6.2057   6.2868   7.5072   9.8773  11.0232  16.2850  20.7830  23.1974
    26.6291

     occupation numbers 
     1.0000   1.0000   1.0000   1.0000   1.0000   1.0000   1.0000   1.0000
     1.0000   1.0000   1.0000   1.0000   1.0000   0.0000   0.0000   0.0000
     0.0000

          k = 0.1667 0.1667 0.4167 (   809 PWs)   bands (ev):

  -112.8911 -67.0873 -67.0762 -67.0761  -4.9399   5.0003   5.6836   5.8318
     6.2119   6.3183   7.4523   9.9145  11.2854  16.7850  19.5131  22.9430
    27.2754

     occupation numbers 
     1.0000   1.0000   1.0000   1.0000   1.0000   1.0000   1.0000   1.0000
     1.0000   1.0000   1.0000   1.0000   1.0000   0.0000   0.0000   0.0000
     0.0000

          k = 0.1667 0.1667-0.5000 (   800 PWs)   bands (ev):

  -112.8910 -67.0882 -67.0760 -67.0760  -4.8628   4.8671   5.6881   5.8013
     6.2034   6.3303   7.4606   9.9434  11.3832  17.0808  18.9337  22.8381
    27.5547

     occupation numbers 
     1.0000   1.0000   1.0000   1.0000   1.0000   1.0000   1.0000   1.0000
     1.0000   1.0000   1.0000   1.0000   1.0000   0.0000   0.0000   0.0000
     0.0000

          k = 0.1667 0.2500 0.2500 (   810 PWs)   bands (ev):

  -112.8913 -67.0805 -67.0803 -67.0764  -5.1791   5.5741   5.7225   6.0181
     6.1799   6.2079   7.6258   9.6528  10.7009  16.1220  22.1556  22.4233
    25.8751

     occupation numbers 
     1.0000   1.0000   1.0000   1.0000   1.0000   1.0000   1.0000   1.0000
     1.0000   1.0000   1.0000   1.0000   1.0000   0.0000   0.0000   0.0000
     0.0000

          k = 0.1667 0.2500 0.3333 (   807 PWs)   bands (ev):

  -112.8910 -67.0842 -67.0801 -67.0761  -4.9480   5.4515   5.6946   5.9535
     6.2300   6.2689   7.5242   9.3984  10.9635  16.3735  20.8874  22.1247
    26.4959

     occupation numbers 
     1.0000   1.0000   1.0000   1.0000   1.0000   1.0000   1.0000   1.0000
     1.0000   1.0000   1.0000   1.0000   1.0000   0.0000   0.0000   0.0000
     0.0000

          k = 0.1667 0.2500 0.4167 (   813 PWs)   bands (ev):

  -112.8909 -67.0870 -67.0799 -67.0759  -4.7666   5.2736   5.6248   5.9259
     6.2646   6.2823   7.5613   9.3095  11.1929  16.5259  19.9198  21.8522
    27.2769

     occupation numbers 
     1.0000   1.0000   1.0000   1.0000   1.0000   1.0000   1.0000   1.0000
     1.0000   1.0000   1.0000   1.0000   1.0000   0.0000   0.0000   0.0000
     0.0000

          k = 0.1667 0.2500-0.5000 (   808 PWs)   bands (ev):

  -112.8908 -67.0880 -67.0798 -67.0758  -4.6971   5.1859   5.5958   5.9217
     6.2513   6.2991   7.6056   9.2942  11.2826  16.5790  19.5661  21.7340
    27.6760

     occupation numbers 
     1.0000   1.0000   1.0000   1.0000   1.0000   1.0000   1.0000   1.0000
     1.0000   1.0000   1.0000   1.0000   1.0000   0.0000   0.0000   0.0000
     0.0000

          k = 0.1667 0.3333 0.3333 (   802 PWs)   bands (ev):

  -112.8908 -67.0839 -67.0838 -67.0758  -4.7426   5.4432   5.7254   5.9563
     6.2856   6.3084   7.5650   8.9784  11.0889  16.2349  20.5818  21.4559
    26.8674

     occupation numbers 
     1.0000   1.0000   1.0000   1.0000   1.0000   1.0000   1.0000   1.0000
     1.0000   1.0000   1.0000   1.0000   1.0000   0.0000   0.0000   0.0000
     0.0000

          k = 0.1667 0.3333 0.4167 (   806 PWs)   bands (ev):

  -112.8906 -67.0866 -67.0836 -67.0756  -4.5825   5.4279   5.6385   5.9656
     6.2376   6.3925   7.7153   8.7559  11.2277  15.9535  20.2181  21.1541
    27.5174

     occupation numbers 
     1.0000   1.0000   1.0000   1.0000   1.0000   1.0000   1.0000   1.0000
     1.0000   1.0000   1.0000   1.0000   1.0000   0.0000   0.0000   0.0000
     0.0000

          k = 0.1667 0.3333-0.5000 (   810 PWs)   bands (ev):

  -112.8906 -67.0876 -67.0836 -67.0756  -4.5216   5.4452   5.5562   5.9807
     6.2006   6.4188   7.8168   8.6845  11.2868  15.8035  20.1150  21.0296
    27.9555

     occupation numbers 
     1.0000   1.0000   1.0000   1.0000   1.0000   1.0000   1.0000   1.0000
     1.0000   1.0000   1.0000   1.0000   1.0000   0.0000   0.0000   0.0000
     0.0000

          k = 0.1667 0.4167 0.4167 (   814 PWs)   bands (ev):

  -112.8905 -67.0865 -67.0864 -67.0754  -4.4400   5.4928   5.6585   5.9507
     6.1305   6.5562   7.9276   8.4299  11.2865  15.3232  20.3914  20.8355
    27.9152

     occupation numbers 
     1.0000   1.0000   1.0000   1.0000   1.0000   1.0000   1.0000   1.0000
     1.0000   1.0000   1.0000   1.0000   1.0000   0.0000   0.0000   0.0000
     0.0000

          k = 0.1667 0.4167-0.5000 (   812 PWs)   bands (ev):

  -112.8904 -67.0874 -67.0863 -67.0754  -4.3861   5.5823   5.5846   5.9645
     6.0555   6.6161   8.0655   8.3092  11.3137  15.0452  20.4881  20.7080
    28.2659

     occupation numbers 
     1.0000   1.0000   1.0000   1.0000   1.0000   1.0000   1.0000   1.0000
     1.0000   1.0000   1.0000   1.0000   1.0000   0.0000   0.0000   0.0000
     0.0000

          k = 0.1667-0.5000-0.5000 (   820 PWs)   bands (ev):

  -112.8903 -67.0874 -67.0874 -67.0754  -4.3348   5.6261   5.6261   5.9522
     5.9529   6.6978   8.1920   8.1920  11.3263  14.7230  20.6213  20.6213
    28.4133

     occupation numbers 
     1.0000   1.0000   1.0000   1.0000   1.0000   1.0000   1.0000   1.0000
     1.0000   1.0000   1.0000   1.0000   1.0000   0.0000   0.0000   0.0000
     0.0000

          k = 0.2500 0.2500 0.2500 (   811 PWs)   bands (ev):

  -112.8911 -67.0803 -67.0801 -67.0801  -4.9769   5.6443   5.6443   6.1001
     6.1001   6.2740   7.4900  10.0894  10.0894  16.2930  21.8897  21.8897
    25.2271

     occupation numbers 
     1.0000   1.0000   1.0000   1.0000   1.0000   1.0000   1.0000   1.0000
     1.0000   1.0000   1.0000   1.0000   1.0000   0.0000   0.0000   0.0000
     0.0000

          k = 0.2500 0.2500 0.3333 (   810 PWs)   bands (ev):

  -112.8908 -67.0839 -67.0799 -67.0798  -4.7602   5.5392   5.5426   6.0671
     6.2176   6.2946   7.5284   9.6248  10.5346  16.4024  20.9069  21.2858
    25.7531

     occupation numbers 
     1.0000   1.0000   1.0000   1.0000   1.0000   1.0000   1.0000   1.0000
     1.0000   1.0000   1.0000   1.0000   1.0000   0.0000   0.0000   0.0000
     0.0000

          k = 0.2500 0.2500 0.4167 (   806 PWs)   bands (ev):

  -112.8906 -67.0866 -67.0796 -67.0795  -4.5906   5.3766   5.4626   6.0593
     6.2253   6.2991   7.7665   9.3177  10.8754  16.4674  20.0323  20.8000
    26.6048

     occupation numbers 
     1.0000   1.0000   1.0000   1.0000   1.0000   1.0000   1.0000   1.0000
     1.0000   1.0000   1.0000   1.0000   1.0000   0.0000   0.0000   0.0000
     0.0000

          k = 0.2500 0.2500-0.5000 (   812 PWs)   bands (ev):

  -112.8906 -67.0877 -67.0796 -67.0795  -4.5260   5.2989   5.4330   6.0585
     6.1915   6.3244   7.9099   9.1936  11.0049  16.4918  19.6988  20.6126
    27.0520

     occupation numbers 
     1.0000   1.0000   1.0000   1.0000   1.0000   1.0000   1.0000   1.0000
     1.0000   1.0000   1.0000   1.0000   1.0000   0.0000   0.0000   0.0000
     0.0000

          k = 0.2500 0.3333 0.3333 (   807 PWs)   bands (ev):

  -112.8906 -67.0836 -67.0835 -67.0795  -4.5596   5.4076   5.5027   6.1262
     6.2059   6.3274   7.7186   9.5255  10.5635  16.3337  20.3231  20.6500
    25.7882

     occupation numbers 
     1.0000   1.0000   1.0000   1.0000   1.0000   1.0000   1.0000   1.0000
     1.0000   1.0000   1.0000   1.0000   1.0000   0.0000   0.0000   0.0000
     0.0000

          k = 0.2500 0.3333 0.4167 (   805 PWs)   bands (ev):

  -112.8904 -67.0863 -67.0833 -67.0793  -4.4034   5.3282   5.4054   6.0500
     6.1564   6.4347   8.0825   9.2349  10.8115  16.1837  19.8019  20.1441
    26.2192

     occupation numbers 
     1.0000   1.0000   1.0000   1.0000   1.0000   1.0000   1.0000   1.0000
     1.0000   1.0000   1.0000   1.0000   1.0000   0.0000   0.0000   0.0000
     0.0000

          k = 0.2500 0.3333-0.5000 (   808 PWs)   bands (ev):

  -112.8903 -67.0873 -67.0832 -67.0792  -4.3440   5.3278   5.3279   5.9945
     6.1584   6.4715   8.3162   9.0523  10.9262  16.0959  19.6986  19.8653
    26.4804

     occupation numbers 
     1.0000   1.0000   1.0000   1.0000   1.0000   1.0000   1.0000   1.0000
     1.0000   1.0000   1.0000   1.0000   1.0000   0.0000   0.0000   0.0000
     0.0000

          k = 0.2500 0.4167 0.4167 (   809 PWs)   bands (ev):

  -112.8902 -67.0861 -67.0861 -67.0790  -4.2580   5.2818   5.3644   5.8437
     6.1842   6.5832   8.4711   9.0915  10.9003  15.7362  19.5512  19.8581
    26.0567

     occupation numbers 
     1.0000   1.0000   1.0000   1.0000   1.0000   1.0000   1.0000   1.0000
     1.0000   1.0000   1.0000   1.0000   1.0000   0.0000   0.0000   0.0000
     0.0000

          k = 0.2500 0.4167-0.5000 (   810 PWs)   bands (ev):

  -112.8901 -67.0871 -67.0860 -67.0790  -4.2028   5.2967   5.3177   5.7520
     6.1921   6.6380   8.7287   8.9509  10.9579  15.5081  19.6159  19.6261
    26.0201

     occupation numbers 
     1.0000   1.0000   1.0000   1.0000   1.0000   1.0000   1.0000   1.0000
     1.0000   1.0000   1.0000   1.0000   1.0000   0.0000   0.0000   0.0000
     0.0000

          k = 0.2500-0.5000-0.5000 (   812 PWs)   bands (ev):

  -112.8901 -67.0870 -67.0870 -67.0789  -4.1493   5.3101   5.3101   5.6280
     6.2013   6.7019   8.9175   8.9175  10.9834  15.2205  19.5856  19.5856
    25.8358

     occupation numbers 
     1.0000   1.0000   1.0000   1.0000   1.0000   1.0000   1.0000   1.0000
     1.0000   1.0000   1.0000   1.0000   1.0000   0.0000   0.0000   0.0000
     0.0000

          k = 0.3333 0.3333 0.3333 (   814 PWs)   bands (ev):

  -112.8903 -67.0833 -67.0833 -67.0833  -4.3643   5.3204   5.3204   5.9782
     6.3427   6.3427   8.0852  10.0887  10.0887  16.3771  19.7924  19.7924
    25.2691

     occupation numbers 
     1.0000   1.0000   1.0000   1.0000   1.0000   1.0000   1.0000   1.0000
     1.0000   1.0000   1.0000   1.0000   1.0000   0.0000   0.0000   0.0000
     0.0000

          k = 0.3333 0.3333 0.4167 (   814 PWs)   bands (ev):

  -112.8901 -67.0860 -67.0831 -67.0830  -4.2121   5.2035   5.2353   5.7673
     6.3529   6.4883   8.5679   9.6743  10.5321  16.3355  19.1227  19.3254
    25.0927

     occupation numbers 
     1.0000   1.0000   1.0000   1.0000   1.0000   1.0000   1.0000   1.0000
     1.0000   1.0000   1.0000   1.0000   1.0000   0.0000   0.0000   0.0000
     0.0000

          k = 0.3333 0.3333-0.5000 (   806 PWs)   bands (ev):

  -112.8901 -67.0870 -67.0830 -67.0828  -4.1543   5.1635   5.1965   5.6871
     6.3566   6.5389   8.8967   9.3996  10.7050  16.2936  18.8658  19.1570
    25.0547

     occupation numbers 
     1.0000   1.0000   1.0000   1.0000   1.0000   1.0000   1.0000   1.0000
     1.0000   1.0000   1.0000   1.0000   1.0000   0.0000   0.0000   0.0000
     0.0000

          k = 0.3333 0.4167 0.4167 (   813 PWs)   bands (ev):

  -112.8900 -67.0858 -67.0858 -67.0828  -4.0632   5.1092   5.1423   5.5071
     6.4264   6.5979   9.0765   9.7667  10.5682  16.2486  18.6366  18.8377
    24.2607

     occupation numbers 
     1.0000   1.0000   1.0000   1.0000   1.0000   1.0000   1.0000   1.0000
     1.0000   1.0000   1.0000   1.0000   1.0000   0.0000   0.0000   0.0000
     0.0000

          k = 0.3333 0.4167-0.5000 (   814 PWs)   bands (ev):

  -112.8899 -67.0868 -67.0857 -67.0827  -4.0066   5.0831   5.1066   5.4016
     6.4382   6.6514   9.4196   9.5961  10.6728  16.1301  18.4968  18.6925
    23.9406

     occupation numbers 
     1.0000   1.0000   1.0000   1.0000   1.0000   1.0000   1.0000   1.0000
     1.0000   1.0000   1.0000   1.0000   1.0000   0.0000   0.0000   0.0000
     0.0000

          k = 0.3333-0.5000-0.5000 (   816 PWs)   bands (ev):

  -112.8898 -67.0867 -67.0867 -67.0826  -3.9504   5.0752   5.0752   5.2715
     6.4538   6.7059   9.6446   9.6446  10.7003  15.9405  18.5084  18.5084
    23.4969

     occupation numbers 
     1.0000   1.0000   1.0000   1.0000   1.0000   1.0000   1.0000   1.0000
     1.0000   1.0000   1.0000   1.0000   1.0000   0.0000   0.0000   0.0000
     0.0000

          k = 0.4167 0.4167 0.4167 (   810 PWs)   bands (ev):

  -112.8898 -67.0855 -67.0855 -67.0855  -3.9111   5.0054   5.0054   5.2273
     6.6061   6.6061   9.6332  10.3086  10.3086  16.6460  18.0393  18.0393
    22.8711

     occupation numbers 
     1.0000   1.0000   1.0000   1.0000   1.0000   1.0000   1.0000   1.0000
     1.0000   1.0000   1.0000   1.0000   1.0000   0.0000   0.0000   0.0000
     0.0000

          k = 0.4167 0.4167-0.5000 (   818 PWs)   bands (ev):

  -112.8897 -67.0867 -67.0855 -67.0854  -3.8531   4.9592   4.9758   5.1142
     6.6088   6.6716   9.9938  10.0834  10.5249  16.7121  17.7293  17.9508
    22.3062

     occupation numbers 
     1.0000   1.0000   1.0000   1.0000   1.0000   1.0000   1.0000   1.0000
     1.0000   1.0000   1.0000   1.0000   1.0000   0.0000   0.0000   0.0000
     0.0000

          k = 0.4167-0.5000-0.5000 (   820 PWs)   bands (ev):

  -112.8897 -67.0866 -67.0866 -67.0852  -3.7946   4.9316   4.9316   4.9905
     6.6412   6.7089  10.2301  10.2301  10.5246  16.8068  17.6619  17.6619
    21.6091

     occupation numbers 
     1.0000   1.0000   1.0000   1.0000   1.0000   1.0000   1.0000   1.0000
     1.0000   1.0000   1.0000   1.0000   1.0000   0.0000   0.0000   0.0000
     0.0000

          k =-0.5000-0.5000-0.5000 (   840 PWs)   bands (ev):

  -112.8896 -67.0866 -67.0866 -67.0866  -3.7352   4.8834   4.8834   4.8834
     6.7099   6.7099  10.4661  10.4661  10.4661  17.3306  17.3306  17.3306
    20.7363

     occupation numbers 
     1.0000   1.0000   1.0000   1.0000   1.0000   1.0000   1.0000   1.0000
     1.0000   1.0000   1.0000   1.0000   1.0000   0.0000   0.0000   0.0000
     0.0000

     the Fermi energy is    12.3920 ev

     WARNING: integrated charge=    26.00931094, expected=    26.00000000

!    total energy              =    -503.17057398 Ry
     estimated scf accuracy    <          3.0E-09 Ry
     smearing contrib. (-TS)   =       0.00001362 Ry
     internal energy E=F+TS    =    -503.17058760 Ry

     The total energy is F=E-TS. E is the sum of the following terms:
     one-electron contribution =    -357.72147223 Ry
     hartree contribution      =     191.99835769 Ry
     xc contribution           =     -49.67496860 Ry
     ewald contribution        =    -278.24034011 Ry
     one-center paw contrib.   =      -9.53216435 Ry
      -> PAW hartree energy AE =      25.43222659 Ry
      -> PAW hartree energy PS =     -25.31953930 Ry
      -> PAW xc energy AE      =     -16.56702978 Ry
      -> PAW xc energy PS      =       6.92217814 Ry
      -> total E_H with PAW    =     192.11104498 Ry
      -> total E_XC with PAW   =     -59.31982024 Ry

     convergence has been achieved in   9 iterations

     Forces acting on atoms (cartesian axes, Ry/au):

     atom    1 type  2   force =     0.00000000    0.00000000    0.00000000
     atom    2 type  1   force =     0.00000000    0.00000000    0.00000000
     The non-local contrib.  to forces
     atom    1 type  2   force =     0.00000000    0.00000000    0.00000000
     atom    2 type  1   force =     0.00000000    0.00000000    0.00000000
     The ionic contribution  to forces
     atom    1 type  2   force =    -0.00000000   -0.00000000   -0.00000000
     atom    2 type  1   force =     0.00000000    0.00000000    0.00000000
     The local contribution  to forces
     atom    1 type  2   force =     0.00000000    0.00000000    0.00000000
     atom    2 type  1   force =     0.00000000    0.00000000    0.00000000
     The core correction contribution to forces
     atom    1 type  2   force =     0.00000000    0.00000000    0.00000000
     atom    2 type  1   force =     0.00000000    0.00000000    0.00000000
     The Hubbard contrib.    to forces
     atom    1 type  2   force =     0.00000000    0.00000000    0.00000000
     atom    2 type  1   force =     0.00000000    0.00000000    0.00000000
     The SCF correction term to forces
     atom    1 type  2   force =    -0.00000000   -0.00000000    0.00000000
     atom    2 type  1   force =     0.00000000    0.00000000   -0.00000000

     Total force =     0.000000     Total SCF correction =     0.000000


     Computing stress (Cartesian axis) and pressure

          total   stress  (Ry/bohr**3)                   (kbar)     P=      -36.01
  -0.00024476   0.00000000   0.00000000          -36.01        0.00        0.00
   0.00000000  -0.00024476   0.00000000            0.00      -36.01        0.00
   0.00000000   0.00000000  -0.00024476            0.00        0.00      -36.01

     kinetic stress (kbar)  41158.87      0.00      0.00
                                0.00  41158.87      0.00
                                0.00      0.00  41158.87

     local   stress (kbar)   8102.29      0.00      0.00
                                0.00   8102.29     -0.00
                                0.00     -0.00   8102.29

     nonloc. stress (kbar)   -921.52      0.00      0.00
                                0.00   -921.52      0.00
                                0.00      0.00   -921.52

     hartree stress (kbar)  69420.50      0.00     -0.00
                                0.00  69420.50      0.00
                               -0.00      0.00  69420.50

     exc-cor stress (kbar) -16732.56      0.00     -0.00
                                0.00 -16732.56     -0.00
                               -0.00     -0.00 -16732.56

     corecor stress (kbar)   -460.72     -0.00      0.00
                               -0.00   -460.72     -0.00
                                0.00     -0.00   -460.72

     ewald   stress (kbar)-100602.86     -0.00     -0.00
                               -0.00-100602.86     -0.00
                               -0.00     -0.00-100602.86

     hubbard stress (kbar)      0.00      0.00      0.00
                                0.00      0.00      0.00
                                0.00      0.00      0.00

     DFT-D   stress (kbar)      0.00      0.00      0.00
                                0.00      0.00      0.00
                                0.00      0.00      0.00

     XDM     stress (kbar)      0.00      0.00      0.00
                                0.00      0.00      0.00
                                0.00      0.00      0.00

     dft-nl  stress (kbar)      0.00      0.00      0.00
                                0.00      0.00      0.00
                                0.00      0.00      0.00

     TS-vdW  stress (kbar)      0.00      0.00      0.00
                                0.00      0.00      0.00
                                0.00      0.00      0.00

     MDB     stress (kbar)      0.00      0.00      0.00
                                0.00      0.00      0.00
                                0.00      0.00      0.00

     3D-RISM stress (kbar)      0.00      0.00      0.00
                                0.00      0.00      0.00
                                0.00      0.00      0.00


     Writing all to output data dir ./temp_cubic/aiida.save/ :
     XML data file, charge density, pseudopotentials, collected wavefunctions

     init_run     :     59.61s CPU      2.73s WALL (       1 calls)
     electrons    :   2998.66s CPU    126.46s WALL (       1 calls)
     forces       :     23.83s CPU      1.03s WALL (       1 calls)
     stress       :      8.83s CPU      0.60s WALL (       1 calls)

     Called by init_run:
     wfcinit      :     54.03s CPU      2.27s WALL (       1 calls)
     wfcinit:atom :      0.50s CPU      0.05s WALL (      84 calls)
     wfcinit:wfcr :     52.70s CPU      2.14s WALL (      84 calls)
     potinit      :      2.40s CPU      0.12s WALL (       1 calls)
     hinit0       :      1.79s CPU      0.26s WALL (       1 calls)

     Called by electrons:
     c_bands      :   2572.01s CPU    108.07s WALL (       9 calls)
     sum_band     :    402.85s CPU     17.16s WALL (       9 calls)
     v_of_rho     :      3.51s CPU      0.16s WALL (      10 calls)
     v_h          :      0.69s CPU      0.04s WALL (      10 calls)
     v_xc         :      2.83s CPU      0.13s WALL (      12 calls)
     newd         :      7.60s CPU      0.50s WALL (      10 calls)
     PAW_pot      :     13.37s CPU      0.59s WALL (      10 calls)
     mix_rho      :      0.73s CPU      0.04s WALL (       9 calls)

     Called by c_bands:
     init_us_2    :     29.05s CPU      1.21s WALL (    1764 calls)
     cegterg      :   2487.51s CPU    104.59s WALL (     756 calls)

     Called by sum_band:
     sum_band:wei :      0.26s CPU      0.01s WALL (       9 calls)
     sum_band:loo :    399.12s CPU     16.67s WALL (       9 calls)
     sum_band:buf :      0.49s CPU      0.02s WALL (     756 calls)
     sum_band:ini :     12.53s CPU      0.49s WALL (     756 calls)
     sum_band:cal :     10.02s CPU      0.44s WALL (     756 calls)
     sum_band:bec :     18.55s CPU      0.77s WALL (     756 calls)
     addusdens    :      3.23s CPU      0.42s WALL (       9 calls)
                                        0.00s GPU  (       9 calls)
     addusd:skk   :      0.00s CPU      0.00s WALL (      18 calls)
                                        0.00s GPU  (      18 calls)

     Called by *egterg:
     cdiaghg      :     18.63s CPU      0.70s WALL (    2395 calls)
     cegterg:over :     32.39s CPU      1.49s WALL (    1639 calls)
     cegterg:upda :     48.69s CPU      1.94s WALL (    1639 calls)
     cegterg:last :     61.01s CPU      2.23s WALL (    1492 calls)
     h_psi        :   2215.17s CPU     93.28s WALL (    2479 calls)
     s_psi        :     29.12s CPU      1.22s WALL (    2479 calls)
     g_psi        :     32.03s CPU      1.51s WALL (    1639 calls)

     Called by h_psi:
     h_psi:calbec :     29.14s CPU      1.14s WALL (    2479 calls)
     vloc_psi     :   2091.72s CPU     88.37s WALL (    2479 calls)
     add_vuspsi   :     30.33s CPU      1.19s WALL (    2479 calls)

     General routines
     calbec       :     44.58s CPU      1.78s WALL (    3655 calls)
     fft          :      2.06s CPU      0.08s WALL (     153 calls)
     ffts         :      0.00s CPU      0.00s WALL (      19 calls)
     fftw         :    159.75s CPU      6.96s WALL (   75158 calls)
     interpolate  :      0.65s CPU      0.01s WALL (      10 calls)

     Parallel routines

     PAW routines
     PAW_pot      :     13.37s CPU      0.59s WALL (      10 calls)
     PAW_symme    :      0.00s CPU      0.00s WALL (      19 calls)

     PWSCF        :  51m54.59s CPU   2m14.73s WALL


   This run was terminated on:  21:50:42   7Jun2024            

=------------------------------------------------------------------------------=
   JOB DONE.
=------------------------------------------------------------------------------=
