
     Program PWSCF v.7.3.1 starts on 12Jun2024 at 14:10:46 

     This program is part of the open-source Quantum ESPRESSO suite
     for quantum simulation of materials; please cite
         "P. Giannozzi et al., J. Phys.:Condens. Matter 21 395502 (2009);
         "P. Giannozzi et al., J. Phys.:Condens. Matter 29 465901 (2017);
         "P. Giannozzi et al., J. Chem. Phys. 152 154105 (2020);
          URL http://www.quantum-espresso.org", 
     in publications or presentations arising from this work. More details at
     http://www.quantum-espresso.org/quote

     Parallel version (MPI & OpenMP), running on      24 processor cores
     Number of MPI processes:                 1
     Threads/MPI process:                    24

     MPI processes distributed on     1 nodes
     5137 MiB available memory on the printing compute node when the environment starts

     Waiting for input...
     Reading input from standard input

     Current dimensions of program PWSCF are:
     Max number of different atomic species (ntypx) = 10
     Max number of k-points (npk) =  40000
     Max angular momentum in pseudopotentials (lmaxx) =  4
     file O.pbe-n-kjpaw_psl.0.1.UPF: wavefunction(s)  2P renormalized
     Message from routine setup:
     using ibrav=0 with symmetry is DISCOURAGED, use correct ibrav instead

     Subspace diagonalization in iterative solution of the eigenvalue problem:
     a serial algorithm will be used


     G-vector sticks info
     --------------------
     sticks:   dense  smooth     PW     G-vecs:    dense   smooth      PW
     Sum         213     101     45                 2205      751     203

     Using Slab Decomposition



     bravais-lattice index     =            0
     lattice parameter (alat)  =       5.0869  a.u.
     unit-cell volume          =     131.6291 (a.u.)^3
     number of atoms/cell      =            2
     number of atomic types    =            2
     number of electrons       =        26.00
     number of Kohn-Sham states=           17
     kinetic-energy cutoff     =      12.5000  Ry
     charge density cutoff     =     100.0000  Ry
     scf convergence threshold =      1.0E-08
     mixing beta               =       0.4000
     number of iterations used =            8  plain     mixing
     Exchange-correlation= SLA  PW   PBE  PBE
                           (   1   4   3   4   0   0   0)

     celldm(1)=   5.086871  celldm(2)=   0.000000  celldm(3)=   0.000000
     celldm(4)=   0.000000  celldm(5)=   0.000000  celldm(6)=   0.000000

     crystal axes: (cart. coord. in units of alat)
               a(1) = (   1.000000   0.000000   0.000000 )  
               a(2) = (   0.000000   1.000000   0.000000 )  
               a(3) = (   0.000000   0.000000   1.000000 )  

     reciprocal axes: (cart. coord. in units 2 pi/alat)
               b(1) = (  1.000000  0.000000  0.000000 )  
               b(2) = (  0.000000  1.000000  0.000000 )  
               b(3) = (  0.000000  0.000000  1.000000 )  


     PseudoPot. # 1 for O  read from file:
     ../SSSP_1.3.0_PBE_efficiency/O.pbe-n-kjpaw_psl.0.1.UPF
     MD5 check sum: 0234752ac141de4415c5fc33072bef88
     Pseudo is Projector augmented-wave + core cor, Zval =  6.0
     Generated using "atomic" code by A. Dal Corso  v.5.0.99 svn rev. 10869
     Shape of augmentation charge: BESSEL
     Using radial grid of 1095 points,  4 beta functions with: 
                l(1) =   0
                l(2) =   0
                l(3) =   1
                l(4) =   1
     Q(r) pseudized with 0 coefficients 


     PseudoPot. # 2 for Zn read from file:
     ../SSSP_1.3.0_PBE_efficiency/Zn_pbe_v1.uspp.F.UPF
     MD5 check sum: df62231357ef9e81f77b2b3087fa5675
     Pseudo is Ultrasoft, Zval = 20.0
     Generated by new atomic code, or converted to UPF format
     Using radial grid of  943 points,  6 beta functions with: 
                l(1) =   0
                l(2) =   0
                l(3) =   1
                l(4) =   1
                l(5) =   2
                l(6) =   2
     Q(r) pseudized with  8 coefficients,  rinner =    1.100   1.100   1.100
                                                       1.100   1.100

     atomic species   valence    mass     pseudopotential
     O                 6.00    15.99940     O ( 1.00)
     Zn               20.00    65.38000     Zn( 1.00)

     48 Sym. Ops., with inversion, found


                                    s                        frac. trans.

      isym =  1     identity                                     

 cryst.   s( 1) = (     1          0          0      )
                  (     0          1          0      )
                  (     0          0          1      )

 cart.    s( 1) = (  1.0000000  0.0000000  0.0000000 )
                  (  0.0000000  1.0000000  0.0000000 )
                  (  0.0000000  0.0000000  1.0000000 )


      isym =  2     180 deg rotation - cart. axis [0,0,1]        

 cryst.   s( 2) = (    -1          0          0      )
                  (     0         -1          0      )
                  (     0          0          1      )

 cart.    s( 2) = ( -1.0000000  0.0000000  0.0000000 )
                  (  0.0000000 -1.0000000  0.0000000 )
                  (  0.0000000  0.0000000  1.0000000 )


      isym =  3     180 deg rotation - cart. axis [0,1,0]        

 cryst.   s( 3) = (    -1          0          0      )
                  (     0          1          0      )
                  (     0          0         -1      )

 cart.    s( 3) = ( -1.0000000  0.0000000  0.0000000 )
                  (  0.0000000  1.0000000  0.0000000 )
                  (  0.0000000  0.0000000 -1.0000000 )


      isym =  4     180 deg rotation - cart. axis [1,0,0]        

 cryst.   s( 4) = (     1          0          0      )
                  (     0         -1          0      )
                  (     0          0         -1      )

 cart.    s( 4) = (  1.0000000  0.0000000  0.0000000 )
                  (  0.0000000 -1.0000000  0.0000000 )
                  (  0.0000000  0.0000000 -1.0000000 )


      isym =  5     180 deg rotation - cart. axis [1,1,0]        

 cryst.   s( 5) = (     0          1          0      )
                  (     1          0          0      )
                  (     0          0         -1      )

 cart.    s( 5) = (  0.0000000  1.0000000  0.0000000 )
                  (  1.0000000  0.0000000  0.0000000 )
                  (  0.0000000  0.0000000 -1.0000000 )


      isym =  6     180 deg rotation - cart. axis [1,-1,0]       

 cryst.   s( 6) = (     0         -1          0      )
                  (    -1          0          0      )
                  (     0          0         -1      )

 cart.    s( 6) = (  0.0000000 -1.0000000  0.0000000 )
                  ( -1.0000000  0.0000000  0.0000000 )
                  (  0.0000000  0.0000000 -1.0000000 )


      isym =  7      90 deg rotation - cart. axis [0,0,-1]       

 cryst.   s( 7) = (     0         -1          0      )
                  (     1          0          0      )
                  (     0          0          1      )

 cart.    s( 7) = (  0.0000000  1.0000000  0.0000000 )
                  ( -1.0000000  0.0000000  0.0000000 )
                  (  0.0000000  0.0000000  1.0000000 )


      isym =  8      90 deg rotation - cart. axis [0,0,1]        

 cryst.   s( 8) = (     0          1          0      )
                  (    -1          0          0      )
                  (     0          0          1      )

 cart.    s( 8) = (  0.0000000 -1.0000000  0.0000000 )
                  (  1.0000000  0.0000000  0.0000000 )
                  (  0.0000000  0.0000000  1.0000000 )


      isym =  9     180 deg rotation - cart. axis [1,0,1]        

 cryst.   s( 9) = (     0          0          1      )
                  (     0         -1          0      )
                  (     1          0          0      )

 cart.    s( 9) = (  0.0000000  0.0000000  1.0000000 )
                  (  0.0000000 -1.0000000  0.0000000 )
                  (  1.0000000  0.0000000  0.0000000 )


      isym = 10     180 deg rotation - cart. axis [-1,0,1]       

 cryst.   s(10) = (     0          0         -1      )
                  (     0         -1          0      )
                  (    -1          0          0      )

 cart.    s(10) = (  0.0000000  0.0000000 -1.0000000 )
                  (  0.0000000 -1.0000000  0.0000000 )
                  ( -1.0000000  0.0000000  0.0000000 )


      isym = 11      90 deg rotation - cart. axis [0,1,0]        

 cryst.   s(11) = (     0          0         -1      )
                  (     0          1          0      )
                  (     1          0          0      )

 cart.    s(11) = (  0.0000000  0.0000000  1.0000000 )
                  (  0.0000000  1.0000000  0.0000000 )
                  ( -1.0000000  0.0000000  0.0000000 )


      isym = 12      90 deg rotation - cart. axis [0,-1,0]       

 cryst.   s(12) = (     0          0          1      )
                  (     0          1          0      )
                  (    -1          0          0      )

 cart.    s(12) = (  0.0000000  0.0000000 -1.0000000 )
                  (  0.0000000  1.0000000  0.0000000 )
                  (  1.0000000  0.0000000  0.0000000 )


      isym = 13     180 deg rotation - cart. axis [0,1,1]        

 cryst.   s(13) = (    -1          0          0      )
                  (     0          0          1      )
                  (     0          1          0      )

 cart.    s(13) = ( -1.0000000  0.0000000  0.0000000 )
                  (  0.0000000  0.0000000  1.0000000 )
                  (  0.0000000  1.0000000  0.0000000 )


      isym = 14     180 deg rotation - cart. axis [0,1,-1]       

 cryst.   s(14) = (    -1          0          0      )
                  (     0          0         -1      )
                  (     0         -1          0      )

 cart.    s(14) = ( -1.0000000  0.0000000  0.0000000 )
                  (  0.0000000  0.0000000 -1.0000000 )
                  (  0.0000000 -1.0000000  0.0000000 )


      isym = 15      90 deg rotation - cart. axis [-1,0,0]       

 cryst.   s(15) = (     1          0          0      )
                  (     0          0         -1      )
                  (     0          1          0      )

 cart.    s(15) = (  1.0000000  0.0000000  0.0000000 )
                  (  0.0000000  0.0000000  1.0000000 )
                  (  0.0000000 -1.0000000  0.0000000 )


      isym = 16      90 deg rotation - cart. axis [1,0,0]        

 cryst.   s(16) = (     1          0          0      )
                  (     0          0          1      )
                  (     0         -1          0      )

 cart.    s(16) = (  1.0000000  0.0000000  0.0000000 )
                  (  0.0000000  0.0000000 -1.0000000 )
                  (  0.0000000  1.0000000  0.0000000 )


      isym = 17     120 deg rotation - cart. axis [-1,-1,-1]     

 cryst.   s(17) = (     0          0          1      )
                  (     1          0          0      )
                  (     0          1          0      )

 cart.    s(17) = (  0.0000000  1.0000000  0.0000000 )
                  (  0.0000000  0.0000000  1.0000000 )
                  (  1.0000000  0.0000000  0.0000000 )


      isym = 18     120 deg rotation - cart. axis [-1,1,1]       

 cryst.   s(18) = (     0          0         -1      )
                  (    -1          0          0      )
                  (     0          1          0      )

 cart.    s(18) = (  0.0000000 -1.0000000  0.0000000 )
                  (  0.0000000  0.0000000  1.0000000 )
                  ( -1.0000000  0.0000000  0.0000000 )


      isym = 19     120 deg rotation - cart. axis [1,1,-1]       

 cryst.   s(19) = (     0          0         -1      )
                  (     1          0          0      )
                  (     0         -1          0      )

 cart.    s(19) = (  0.0000000  1.0000000  0.0000000 )
                  (  0.0000000  0.0000000 -1.0000000 )
                  ( -1.0000000  0.0000000  0.0000000 )


      isym = 20     120 deg rotation - cart. axis [1,-1,1]       

 cryst.   s(20) = (     0          0          1      )
                  (    -1          0          0      )
                  (     0         -1          0      )

 cart.    s(20) = (  0.0000000 -1.0000000  0.0000000 )
                  (  0.0000000  0.0000000 -1.0000000 )
                  (  1.0000000  0.0000000  0.0000000 )


      isym = 21     120 deg rotation - cart. axis [1,1,1]        

 cryst.   s(21) = (     0          1          0      )
                  (     0          0          1      )
                  (     1          0          0      )

 cart.    s(21) = (  0.0000000  0.0000000  1.0000000 )
                  (  1.0000000  0.0000000  0.0000000 )
                  (  0.0000000  1.0000000  0.0000000 )


      isym = 22     120 deg rotation - cart. axis [-1,1,-1]      

 cryst.   s(22) = (     0         -1          0      )
                  (     0          0         -1      )
                  (     1          0          0      )

 cart.    s(22) = (  0.0000000  0.0000000  1.0000000 )
                  ( -1.0000000  0.0000000  0.0000000 )
                  (  0.0000000 -1.0000000  0.0000000 )


      isym = 23     120 deg rotation - cart. axis [1,-1,-1]      

 cryst.   s(23) = (     0         -1          0      )
                  (     0          0          1      )
                  (    -1          0          0      )

 cart.    s(23) = (  0.0000000  0.0000000 -1.0000000 )
                  ( -1.0000000  0.0000000  0.0000000 )
                  (  0.0000000  1.0000000  0.0000000 )


      isym = 24     120 deg rotation - cart. axis [-1,-1,1]      

 cryst.   s(24) = (     0          1          0      )
                  (     0          0         -1      )
                  (    -1          0          0      )

 cart.    s(24) = (  0.0000000  0.0000000 -1.0000000 )
                  (  1.0000000  0.0000000  0.0000000 )
                  (  0.0000000 -1.0000000  0.0000000 )


      isym = 25     inversion                                    

 cryst.   s(25) = (    -1          0          0      )
                  (     0         -1          0      )
                  (     0          0         -1      )

 cart.    s(25) = ( -1.0000000  0.0000000  0.0000000 )
                  (  0.0000000 -1.0000000  0.0000000 )
                  (  0.0000000  0.0000000 -1.0000000 )


      isym = 26     inv. 180 deg rotation - cart. axis [0,0,1]   

 cryst.   s(26) = (     1          0          0      )
                  (     0          1          0      )
                  (     0          0         -1      )

 cart.    s(26) = (  1.0000000  0.0000000  0.0000000 )
                  (  0.0000000  1.0000000  0.0000000 )
                  (  0.0000000  0.0000000 -1.0000000 )


      isym = 27     inv. 180 deg rotation - cart. axis [0,1,0]   

 cryst.   s(27) = (     1          0          0      )
                  (     0         -1          0      )
                  (     0          0          1      )

 cart.    s(27) = (  1.0000000  0.0000000  0.0000000 )
                  (  0.0000000 -1.0000000  0.0000000 )
                  (  0.0000000  0.0000000  1.0000000 )


      isym = 28     inv. 180 deg rotation - cart. axis [1,0,0]   

 cryst.   s(28) = (    -1          0          0      )
                  (     0          1          0      )
                  (     0          0          1      )

 cart.    s(28) = ( -1.0000000  0.0000000  0.0000000 )
                  (  0.0000000  1.0000000  0.0000000 )
                  (  0.0000000  0.0000000  1.0000000 )


      isym = 29     inv. 180 deg rotation - cart. axis [1,1,0]   

 cryst.   s(29) = (     0         -1          0      )
                  (    -1          0          0      )
                  (     0          0          1      )

 cart.    s(29) = (  0.0000000 -1.0000000  0.0000000 )
                  ( -1.0000000  0.0000000  0.0000000 )
                  (  0.0000000  0.0000000  1.0000000 )


      isym = 30     inv. 180 deg rotation - cart. axis [1,-1,0]  

 cryst.   s(30) = (     0          1          0      )
                  (     1          0          0      )
                  (     0          0          1      )

 cart.    s(30) = (  0.0000000  1.0000000  0.0000000 )
                  (  1.0000000  0.0000000  0.0000000 )
                  (  0.0000000  0.0000000  1.0000000 )


      isym = 31     inv.  90 deg rotation - cart. axis [0,0,-1]  

 cryst.   s(31) = (     0          1          0      )
                  (    -1          0          0      )
                  (     0          0         -1      )

 cart.    s(31) = (  0.0000000 -1.0000000  0.0000000 )
                  (  1.0000000  0.0000000  0.0000000 )
                  (  0.0000000  0.0000000 -1.0000000 )


      isym = 32     inv.  90 deg rotation - cart. axis [0,0,1]   

 cryst.   s(32) = (     0         -1          0      )
                  (     1          0          0      )
                  (     0          0         -1      )

 cart.    s(32) = (  0.0000000  1.0000000  0.0000000 )
                  ( -1.0000000  0.0000000  0.0000000 )
                  (  0.0000000  0.0000000 -1.0000000 )


      isym = 33     inv. 180 deg rotation - cart. axis [1,0,1]   

 cryst.   s(33) = (     0          0         -1      )
                  (     0          1          0      )
                  (    -1          0          0      )

 cart.    s(33) = (  0.0000000  0.0000000 -1.0000000 )
                  (  0.0000000  1.0000000  0.0000000 )
                  ( -1.0000000  0.0000000  0.0000000 )


      isym = 34     inv. 180 deg rotation - cart. axis [-1,0,1]  

 cryst.   s(34) = (     0          0          1      )
                  (     0          1          0      )
                  (     1          0          0      )

 cart.    s(34) = (  0.0000000  0.0000000  1.0000000 )
                  (  0.0000000  1.0000000  0.0000000 )
                  (  1.0000000  0.0000000  0.0000000 )


      isym = 35     inv.  90 deg rotation - cart. axis [0,1,0]   

 cryst.   s(35) = (     0          0          1      )
                  (     0         -1          0      )
                  (    -1          0          0      )

 cart.    s(35) = (  0.0000000  0.0000000 -1.0000000 )
                  (  0.0000000 -1.0000000  0.0000000 )
                  (  1.0000000  0.0000000  0.0000000 )


      isym = 36     inv.  90 deg rotation - cart. axis [0,-1,0]  

 cryst.   s(36) = (     0          0         -1      )
                  (     0         -1          0      )
                  (     1          0          0      )

 cart.    s(36) = (  0.0000000  0.0000000  1.0000000 )
                  (  0.0000000 -1.0000000  0.0000000 )
                  ( -1.0000000  0.0000000  0.0000000 )


      isym = 37     inv. 180 deg rotation - cart. axis [0,1,1]   

 cryst.   s(37) = (     1          0          0      )
                  (     0          0         -1      )
                  (     0         -1          0      )

 cart.    s(37) = (  1.0000000  0.0000000  0.0000000 )
                  (  0.0000000  0.0000000 -1.0000000 )
                  (  0.0000000 -1.0000000  0.0000000 )


      isym = 38     inv. 180 deg rotation - cart. axis [0,1,-1]  

 cryst.   s(38) = (     1          0          0      )
                  (     0          0          1      )
                  (     0          1          0      )

 cart.    s(38) = (  1.0000000  0.0000000  0.0000000 )
                  (  0.0000000  0.0000000  1.0000000 )
                  (  0.0000000  1.0000000  0.0000000 )


      isym = 39     inv.  90 deg rotation - cart. axis [-1,0,0]  

 cryst.   s(39) = (    -1          0          0      )
                  (     0          0          1      )
                  (     0         -1          0      )

 cart.    s(39) = ( -1.0000000  0.0000000  0.0000000 )
                  (  0.0000000  0.0000000 -1.0000000 )
                  (  0.0000000  1.0000000  0.0000000 )


      isym = 40     inv.  90 deg rotation - cart. axis [1,0,0]   

 cryst.   s(40) = (    -1          0          0      )
                  (     0          0         -1      )
                  (     0          1          0      )

 cart.    s(40) = ( -1.0000000  0.0000000  0.0000000 )
                  (  0.0000000  0.0000000  1.0000000 )
                  (  0.0000000 -1.0000000  0.0000000 )


      isym = 41     inv. 120 deg rotation - cart. axis [-1,-1,-1]

 cryst.   s(41) = (     0          0         -1      )
                  (    -1          0          0      )
                  (     0         -1          0      )

 cart.    s(41) = (  0.0000000 -1.0000000  0.0000000 )
                  (  0.0000000  0.0000000 -1.0000000 )
                  ( -1.0000000  0.0000000  0.0000000 )


      isym = 42     inv. 120 deg rotation - cart. axis [-1,1,1]  

 cryst.   s(42) = (     0          0          1      )
                  (     1          0          0      )
                  (     0         -1          0      )

 cart.    s(42) = (  0.0000000  1.0000000  0.0000000 )
                  (  0.0000000  0.0000000 -1.0000000 )
                  (  1.0000000  0.0000000  0.0000000 )


      isym = 43     inv. 120 deg rotation - cart. axis [1,1,-1]  

 cryst.   s(43) = (     0          0          1      )
                  (    -1          0          0      )
                  (     0          1          0      )

 cart.    s(43) = (  0.0000000 -1.0000000  0.0000000 )
                  (  0.0000000  0.0000000  1.0000000 )
                  (  1.0000000  0.0000000  0.0000000 )


      isym = 44     inv. 120 deg rotation - cart. axis [1,-1,1]  

 cryst.   s(44) = (     0          0         -1      )
                  (     1          0          0      )
                  (     0          1          0      )

 cart.    s(44) = (  0.0000000  1.0000000  0.0000000 )
                  (  0.0000000  0.0000000  1.0000000 )
                  ( -1.0000000  0.0000000  0.0000000 )


      isym = 45     inv. 120 deg rotation - cart. axis [1,1,1]   

 cryst.   s(45) = (     0         -1          0      )
                  (     0          0         -1      )
                  (    -1          0          0      )

 cart.    s(45) = (  0.0000000  0.0000000 -1.0000000 )
                  ( -1.0000000  0.0000000  0.0000000 )
                  (  0.0000000 -1.0000000  0.0000000 )


      isym = 46     inv. 120 deg rotation - cart. axis [-1,1,-1] 

 cryst.   s(46) = (     0          1          0      )
                  (     0          0          1      )
                  (    -1          0          0      )

 cart.    s(46) = (  0.0000000  0.0000000 -1.0000000 )
                  (  1.0000000  0.0000000  0.0000000 )
                  (  0.0000000  1.0000000  0.0000000 )


      isym = 47     inv. 120 deg rotation - cart. axis [1,-1,-1] 

 cryst.   s(47) = (     0          1          0      )
                  (     0          0         -1      )
                  (     1          0          0      )

 cart.    s(47) = (  0.0000000  0.0000000  1.0000000 )
                  (  1.0000000  0.0000000  0.0000000 )
                  (  0.0000000 -1.0000000  0.0000000 )


      isym = 48     inv. 120 deg rotation - cart. axis [-1,-1,1] 

 cryst.   s(48) = (     0         -1          0      )
                  (     0          0          1      )
                  (     1          0          0      )

 cart.    s(48) = (  0.0000000  0.0000000  1.0000000 )
                  ( -1.0000000  0.0000000  0.0000000 )
                  (  0.0000000  1.0000000  0.0000000 )


   Cartesian axes

     site n.     atom                  positions (alat units)
         1        Zn     tau(   1) = (   0.0000000   0.0000000   0.0000000  )
         2        O      tau(   2) = (   0.5000000   0.5000000   0.5000000  )

   Crystallographic axes

     site n.     atom                  positions (cryst. coord.)
         1        Zn     tau(   1) = (  0.0000000  0.0000000  0.0000000  )
         2        O      tau(   2) = (  0.5000000  0.5000000  0.5000000  )

     number of k points=    84  Marzari-Vanderbilt smearing, width (Ry)=  0.0037
                       cart. coord. in units 2pi/alat
        k(    1) = (   0.0000000   0.0000000   0.0000000), wk =   0.0011574
        k(    2) = (   0.0000000   0.0000000   0.0833333), wk =   0.0069444
        k(    3) = (   0.0000000   0.0000000   0.1666667), wk =   0.0069444
        k(    4) = (   0.0000000   0.0000000   0.2500000), wk =   0.0069444
        k(    5) = (   0.0000000   0.0000000   0.3333333), wk =   0.0069444
        k(    6) = (   0.0000000   0.0000000   0.4166667), wk =   0.0069444
        k(    7) = (   0.0000000   0.0000000  -0.5000000), wk =   0.0034722
        k(    8) = (   0.0000000   0.0833333   0.0833333), wk =   0.0138889
        k(    9) = (   0.0000000   0.0833333   0.1666667), wk =   0.0277778
        k(   10) = (   0.0000000   0.0833333   0.2500000), wk =   0.0277778
        k(   11) = (   0.0000000   0.0833333   0.3333333), wk =   0.0277778
        k(   12) = (   0.0000000   0.0833333   0.4166667), wk =   0.0277778
        k(   13) = (   0.0000000   0.0833333  -0.5000000), wk =   0.0138889
        k(   14) = (   0.0000000   0.1666667   0.1666667), wk =   0.0138889
        k(   15) = (   0.0000000   0.1666667   0.2500000), wk =   0.0277778
        k(   16) = (   0.0000000   0.1666667   0.3333333), wk =   0.0277778
        k(   17) = (   0.0000000   0.1666667   0.4166667), wk =   0.0277778
        k(   18) = (   0.0000000   0.1666667  -0.5000000), wk =   0.0138889
        k(   19) = (   0.0000000   0.2500000   0.2500000), wk =   0.0138889
        k(   20) = (   0.0000000   0.2500000   0.3333333), wk =   0.0277778
        k(   21) = (   0.0000000   0.2500000   0.4166667), wk =   0.0277778
        k(   22) = (   0.0000000   0.2500000  -0.5000000), wk =   0.0138889
        k(   23) = (   0.0000000   0.3333333   0.3333333), wk =   0.0138889
        k(   24) = (   0.0000000   0.3333333   0.4166667), wk =   0.0277778
        k(   25) = (   0.0000000   0.3333333  -0.5000000), wk =   0.0138889
        k(   26) = (   0.0000000   0.4166667   0.4166667), wk =   0.0138889
        k(   27) = (   0.0000000   0.4166667  -0.5000000), wk =   0.0138889
        k(   28) = (   0.0000000  -0.5000000  -0.5000000), wk =   0.0034722
        k(   29) = (   0.0833333   0.0833333   0.0833333), wk =   0.0092593
        k(   30) = (   0.0833333   0.0833333   0.1666667), wk =   0.0277778
        k(   31) = (   0.0833333   0.0833333   0.2500000), wk =   0.0277778
        k(   32) = (   0.0833333   0.0833333   0.3333333), wk =   0.0277778
        k(   33) = (   0.0833333   0.0833333   0.4166667), wk =   0.0277778
        k(   34) = (   0.0833333   0.0833333  -0.5000000), wk =   0.0138889
        k(   35) = (   0.0833333   0.1666667   0.1666667), wk =   0.0277778
        k(   36) = (   0.0833333   0.1666667   0.2500000), wk =   0.0555556
        k(   37) = (   0.0833333   0.1666667   0.3333333), wk =   0.0555556
        k(   38) = (   0.0833333   0.1666667   0.4166667), wk =   0.0555556
        k(   39) = (   0.0833333   0.1666667  -0.5000000), wk =   0.0277778
        k(   40) = (   0.0833333   0.2500000   0.2500000), wk =   0.0277778
        k(   41) = (   0.0833333   0.2500000   0.3333333), wk =   0.0555556
        k(   42) = (   0.0833333   0.2500000   0.4166667), wk =   0.0555556
        k(   43) = (   0.0833333   0.2500000  -0.5000000), wk =   0.0277778
        k(   44) = (   0.0833333   0.3333333   0.3333333), wk =   0.0277778
        k(   45) = (   0.0833333   0.3333333   0.4166667), wk =   0.0555556
        k(   46) = (   0.0833333   0.3333333  -0.5000000), wk =   0.0277778
        k(   47) = (   0.0833333   0.4166667   0.4166667), wk =   0.0277778
        k(   48) = (   0.0833333   0.4166667  -0.5000000), wk =   0.0277778
        k(   49) = (   0.0833333  -0.5000000  -0.5000000), wk =   0.0069444
        k(   50) = (   0.1666667   0.1666667   0.1666667), wk =   0.0092593
        k(   51) = (   0.1666667   0.1666667   0.2500000), wk =   0.0277778
        k(   52) = (   0.1666667   0.1666667   0.3333333), wk =   0.0277778
        k(   53) = (   0.1666667   0.1666667   0.4166667), wk =   0.0277778
        k(   54) = (   0.1666667   0.1666667  -0.5000000), wk =   0.0138889
        k(   55) = (   0.1666667   0.2500000   0.2500000), wk =   0.0277778
        k(   56) = (   0.1666667   0.2500000   0.3333333), wk =   0.0555556
        k(   57) = (   0.1666667   0.2500000   0.4166667), wk =   0.0555556
        k(   58) = (   0.1666667   0.2500000  -0.5000000), wk =   0.0277778
        k(   59) = (   0.1666667   0.3333333   0.3333333), wk =   0.0277778
        k(   60) = (   0.1666667   0.3333333   0.4166667), wk =   0.0555556
        k(   61) = (   0.1666667   0.3333333  -0.5000000), wk =   0.0277778
        k(   62) = (   0.1666667   0.4166667   0.4166667), wk =   0.0277778
        k(   63) = (   0.1666667   0.4166667  -0.5000000), wk =   0.0277778
        k(   64) = (   0.1666667  -0.5000000  -0.5000000), wk =   0.0069444
        k(   65) = (   0.2500000   0.2500000   0.2500000), wk =   0.0092593
        k(   66) = (   0.2500000   0.2500000   0.3333333), wk =   0.0277778
        k(   67) = (   0.2500000   0.2500000   0.4166667), wk =   0.0277778
        k(   68) = (   0.2500000   0.2500000  -0.5000000), wk =   0.0138889
        k(   69) = (   0.2500000   0.3333333   0.3333333), wk =   0.0277778
        k(   70) = (   0.2500000   0.3333333   0.4166667), wk =   0.0555556
        k(   71) = (   0.2500000   0.3333333  -0.5000000), wk =   0.0277778
        k(   72) = (   0.2500000   0.4166667   0.4166667), wk =   0.0277778
        k(   73) = (   0.2500000   0.4166667  -0.5000000), wk =   0.0277778
        k(   74) = (   0.2500000  -0.5000000  -0.5000000), wk =   0.0069444
        k(   75) = (   0.3333333   0.3333333   0.3333333), wk =   0.0092593
        k(   76) = (   0.3333333   0.3333333   0.4166667), wk =   0.0277778
        k(   77) = (   0.3333333   0.3333333  -0.5000000), wk =   0.0138889
        k(   78) = (   0.3333333   0.4166667   0.4166667), wk =   0.0277778
        k(   79) = (   0.3333333   0.4166667  -0.5000000), wk =   0.0277778
        k(   80) = (   0.3333333  -0.5000000  -0.5000000), wk =   0.0069444
        k(   81) = (   0.4166667   0.4166667   0.4166667), wk =   0.0092593
        k(   82) = (   0.4166667   0.4166667  -0.5000000), wk =   0.0138889
        k(   83) = (   0.4166667  -0.5000000  -0.5000000), wk =   0.0069444
        k(   84) = (  -0.5000000  -0.5000000  -0.5000000), wk =   0.0011574

                       cryst. coord.
        k(    1) = (   0.0000000   0.0000000   0.0000000), wk =   0.0011574
        k(    2) = (   0.0000000   0.0000000   0.0833333), wk =   0.0069444
        k(    3) = (   0.0000000   0.0000000   0.1666667), wk =   0.0069444
        k(    4) = (   0.0000000   0.0000000   0.2500000), wk =   0.0069444
        k(    5) = (   0.0000000   0.0000000   0.3333333), wk =   0.0069444
        k(    6) = (   0.0000000   0.0000000   0.4166667), wk =   0.0069444
        k(    7) = (   0.0000000   0.0000000  -0.5000000), wk =   0.0034722
        k(    8) = (   0.0000000   0.0833333   0.0833333), wk =   0.0138889
        k(    9) = (   0.0000000   0.0833333   0.1666667), wk =   0.0277778
        k(   10) = (   0.0000000   0.0833333   0.2500000), wk =   0.0277778
        k(   11) = (   0.0000000   0.0833333   0.3333333), wk =   0.0277778
        k(   12) = (   0.0000000   0.0833333   0.4166667), wk =   0.0277778
        k(   13) = (   0.0000000   0.0833333  -0.5000000), wk =   0.0138889
        k(   14) = (   0.0000000   0.1666667   0.1666667), wk =   0.0138889
        k(   15) = (   0.0000000   0.1666667   0.2500000), wk =   0.0277778
        k(   16) = (   0.0000000   0.1666667   0.3333333), wk =   0.0277778
        k(   17) = (   0.0000000   0.1666667   0.4166667), wk =   0.0277778
        k(   18) = (   0.0000000   0.1666667  -0.5000000), wk =   0.0138889
        k(   19) = (   0.0000000   0.2500000   0.2500000), wk =   0.0138889
        k(   20) = (   0.0000000   0.2500000   0.3333333), wk =   0.0277778
        k(   21) = (   0.0000000   0.2500000   0.4166667), wk =   0.0277778
        k(   22) = (   0.0000000   0.2500000  -0.5000000), wk =   0.0138889
        k(   23) = (   0.0000000   0.3333333   0.3333333), wk =   0.0138889
        k(   24) = (   0.0000000   0.3333333   0.4166667), wk =   0.0277778
        k(   25) = (   0.0000000   0.3333333  -0.5000000), wk =   0.0138889
        k(   26) = (   0.0000000   0.4166667   0.4166667), wk =   0.0138889
        k(   27) = (   0.0000000   0.4166667  -0.5000000), wk =   0.0138889
        k(   28) = (   0.0000000  -0.5000000  -0.5000000), wk =   0.0034722
        k(   29) = (   0.0833333   0.0833333   0.0833333), wk =   0.0092593
        k(   30) = (   0.0833333   0.0833333   0.1666667), wk =   0.0277778
        k(   31) = (   0.0833333   0.0833333   0.2500000), wk =   0.0277778
        k(   32) = (   0.0833333   0.0833333   0.3333333), wk =   0.0277778
        k(   33) = (   0.0833333   0.0833333   0.4166667), wk =   0.0277778
        k(   34) = (   0.0833333   0.0833333  -0.5000000), wk =   0.0138889
        k(   35) = (   0.0833333   0.1666667   0.1666667), wk =   0.0277778
        k(   36) = (   0.0833333   0.1666667   0.2500000), wk =   0.0555556
        k(   37) = (   0.0833333   0.1666667   0.3333333), wk =   0.0555556
        k(   38) = (   0.0833333   0.1666667   0.4166667), wk =   0.0555556
        k(   39) = (   0.0833333   0.1666667  -0.5000000), wk =   0.0277778
        k(   40) = (   0.0833333   0.2500000   0.2500000), wk =   0.0277778
        k(   41) = (   0.0833333   0.2500000   0.3333333), wk =   0.0555556
        k(   42) = (   0.0833333   0.2500000   0.4166667), wk =   0.0555556
        k(   43) = (   0.0833333   0.2500000  -0.5000000), wk =   0.0277778
        k(   44) = (   0.0833333   0.3333333   0.3333333), wk =   0.0277778
        k(   45) = (   0.0833333   0.3333333   0.4166667), wk =   0.0555556
        k(   46) = (   0.0833333   0.3333333  -0.5000000), wk =   0.0277778
        k(   47) = (   0.0833333   0.4166667   0.4166667), wk =   0.0277778
        k(   48) = (   0.0833333   0.4166667  -0.5000000), wk =   0.0277778
        k(   49) = (   0.0833333  -0.5000000  -0.5000000), wk =   0.0069444
        k(   50) = (   0.1666667   0.1666667   0.1666667), wk =   0.0092593
        k(   51) = (   0.1666667   0.1666667   0.2500000), wk =   0.0277778
        k(   52) = (   0.1666667   0.1666667   0.3333333), wk =   0.0277778
        k(   53) = (   0.1666667   0.1666667   0.4166667), wk =   0.0277778
        k(   54) = (   0.1666667   0.1666667  -0.5000000), wk =   0.0138889
        k(   55) = (   0.1666667   0.2500000   0.2500000), wk =   0.0277778
        k(   56) = (   0.1666667   0.2500000   0.3333333), wk =   0.0555556
        k(   57) = (   0.1666667   0.2500000   0.4166667), wk =   0.0555556
        k(   58) = (   0.1666667   0.2500000  -0.5000000), wk =   0.0277778
        k(   59) = (   0.1666667   0.3333333   0.3333333), wk =   0.0277778
        k(   60) = (   0.1666667   0.3333333   0.4166667), wk =   0.0555556
        k(   61) = (   0.1666667   0.3333333  -0.5000000), wk =   0.0277778
        k(   62) = (   0.1666667   0.4166667   0.4166667), wk =   0.0277778
        k(   63) = (   0.1666667   0.4166667  -0.5000000), wk =   0.0277778
        k(   64) = (   0.1666667  -0.5000000  -0.5000000), wk =   0.0069444
        k(   65) = (   0.2500000   0.2500000   0.2500000), wk =   0.0092593
        k(   66) = (   0.2500000   0.2500000   0.3333333), wk =   0.0277778
        k(   67) = (   0.2500000   0.2500000   0.4166667), wk =   0.0277778
        k(   68) = (   0.2500000   0.2500000  -0.5000000), wk =   0.0138889
        k(   69) = (   0.2500000   0.3333333   0.3333333), wk =   0.0277778
        k(   70) = (   0.2500000   0.3333333   0.4166667), wk =   0.0555556
        k(   71) = (   0.2500000   0.3333333  -0.5000000), wk =   0.0277778
        k(   72) = (   0.2500000   0.4166667   0.4166667), wk =   0.0277778
        k(   73) = (   0.2500000   0.4166667  -0.5000000), wk =   0.0277778
        k(   74) = (   0.2500000  -0.5000000  -0.5000000), wk =   0.0069444
        k(   75) = (   0.3333333   0.3333333   0.3333333), wk =   0.0092593
        k(   76) = (   0.3333333   0.3333333   0.4166667), wk =   0.0277778
        k(   77) = (   0.3333333   0.3333333  -0.5000000), wk =   0.0138889
        k(   78) = (   0.3333333   0.4166667   0.4166667), wk =   0.0277778
        k(   79) = (   0.3333333   0.4166667  -0.5000000), wk =   0.0277778
        k(   80) = (   0.3333333  -0.5000000  -0.5000000), wk =   0.0069444
        k(   81) = (   0.4166667   0.4166667   0.4166667), wk =   0.0092593
        k(   82) = (   0.4166667   0.4166667  -0.5000000), wk =   0.0138889
        k(   83) = (   0.4166667  -0.5000000  -0.5000000), wk =   0.0069444
        k(   84) = (  -0.5000000  -0.5000000  -0.5000000), wk =   0.0011574

     Dense  grid:     2205 G-vectors     FFT dimensions: (  18,  18,  18)

     Smooth grid:      751 G-vectors     FFT dimensions: (  12,  12,  12)

     Dynamical RAM for                 wfc:       0.03 MB

     Dynamical RAM for     wfc (w. buffer):       2.16 MB

     Dynamical RAM for           str. fact:       0.07 MB

     Dynamical RAM for           local pot:       0.00 MB

     Dynamical RAM for          nlocal pot:       0.04 MB

     Dynamical RAM for                qrad:       1.61 MB

     Dynamical RAM for          rho,v,vnew:       0.23 MB

     Dynamical RAM for               rhoin:       0.08 MB

     Dynamical RAM for            rho*nmix:       0.54 MB

     Dynamical RAM for           G-vectors:       0.13 MB

     Dynamical RAM for          h,s,v(r/c):       0.05 MB

     Dynamical RAM for          <psi|beta>:       0.01 MB

     Dynamical RAM for                 psi:       0.05 MB

     Dynamical RAM for                hpsi:       0.05 MB

     Dynamical RAM for                spsi:       0.05 MB

     Dynamical RAM for      wfcinit/wfcrot:       0.06 MB

     Dynamical RAM for           addusdens:       6.29 MB

     Dynamical RAM for          addusforce:       6.31 MB

     Dynamical RAM for         addusstress:       6.76 MB

     Estimated static dynamical RAM per process >       4.64 MB

     Estimated max dynamical RAM per process >      11.94 MB

     Check: negative core charge=   -0.000387

     Initial potential from superposition of free atoms

     starting charge      25.9999, renormalised to      26.0000
     Starting wfcs are   17 randomized atomic wfcs
     Checking if some PAW data can be deallocated... 

     total cpu time spent up to now is        2.1 secs

     Self-consistent Calculation

     iteration #  1     ecut=    12.50 Ry     beta= 0.40
     Davidson diagonalization with overlap

---- Real-time Memory Report at c_bands before calling an iterative solver
            41 MiB given to the printing process from OS
             0 MiB allocation reported by mallinfo(arena+hblkhd)
          5119 MiB available memory on the node where the printing process lives
------------------
     ethr =  1.00E-02,  avg # of iterations =  3.1

     total cpu time spent up to now is       87.0 secs

     total energy              =    -461.13540242 Ry
     estimated scf accuracy    <      38.86157314 Ry

     iteration #  2     ecut=    12.50 Ry     beta= 0.40
     Davidson diagonalization with overlap

---- Real-time Memory Report at c_bands before calling an iterative solver
            47 MiB given to the printing process from OS
             0 MiB allocation reported by mallinfo(arena+hblkhd)
          5108 MiB available memory on the node where the printing process lives
------------------
     ethr =  1.00E-02,  avg # of iterations =  2.1

     total cpu time spent up to now is       99.6 secs

     total energy              =    -469.84035625 Ry
     estimated scf accuracy    <       3.86102453 Ry

     iteration #  3     ecut=    12.50 Ry     beta= 0.40
     Davidson diagonalization with overlap

---- Real-time Memory Report at c_bands before calling an iterative solver
            47 MiB given to the printing process from OS
             0 MiB allocation reported by mallinfo(arena+hblkhd)
          5105 MiB available memory on the node where the printing process lives
------------------
     ethr =  1.00E-02,  avg # of iterations =  2.0

     total cpu time spent up to now is      106.6 secs

     total energy              =    -470.38799753 Ry
     estimated scf accuracy    <       0.36783133 Ry

     iteration #  4     ecut=    12.50 Ry     beta= 0.40
     Davidson diagonalization with overlap

---- Real-time Memory Report at c_bands before calling an iterative solver
            47 MiB given to the printing process from OS
             0 MiB allocation reported by mallinfo(arena+hblkhd)
          5102 MiB available memory on the node where the printing process lives
------------------
     ethr =  1.41E-03,  avg # of iterations =  1.0

     total cpu time spent up to now is      113.1 secs

     total energy              =    -470.35603771 Ry
     estimated scf accuracy    <       0.09506434 Ry

     iteration #  5     ecut=    12.50 Ry     beta= 0.40
     Davidson diagonalization with overlap

---- Real-time Memory Report at c_bands before calling an iterative solver
            47 MiB given to the printing process from OS
             0 MiB allocation reported by mallinfo(arena+hblkhd)
          5105 MiB available memory on the node where the printing process lives
------------------
     ethr =  3.66E-04,  avg # of iterations =  2.1

     total cpu time spent up to now is      123.1 secs

     total energy              =    -470.36238440 Ry
     estimated scf accuracy    <       0.00272397 Ry

     iteration #  6     ecut=    12.50 Ry     beta= 0.40
     Davidson diagonalization with overlap

---- Real-time Memory Report at c_bands before calling an iterative solver
            47 MiB given to the printing process from OS
             0 MiB allocation reported by mallinfo(arena+hblkhd)
          5103 MiB available memory on the node where the printing process lives
------------------
     ethr =  1.05E-05,  avg # of iterations =  2.7

     total cpu time spent up to now is      131.5 secs

     total energy              =    -470.36310857 Ry
     estimated scf accuracy    <       0.00076827 Ry

     iteration #  7     ecut=    12.50 Ry     beta= 0.40
     Davidson diagonalization with overlap

---- Real-time Memory Report at c_bands before calling an iterative solver
            47 MiB given to the printing process from OS
             0 MiB allocation reported by mallinfo(arena+hblkhd)
          5104 MiB available memory on the node where the printing process lives
------------------
     ethr =  2.95E-06,  avg # of iterations =  1.9

     total cpu time spent up to now is      139.4 secs

     total energy              =    -470.36324944 Ry
     estimated scf accuracy    <       0.00001249 Ry

     iteration #  8     ecut=    12.50 Ry     beta= 0.40
     Davidson diagonalization with overlap

---- Real-time Memory Report at c_bands before calling an iterative solver
            47 MiB given to the printing process from OS
             0 MiB allocation reported by mallinfo(arena+hblkhd)
          5103 MiB available memory on the node where the printing process lives
------------------
     ethr =  4.80E-08,  avg # of iterations =  2.0

     total cpu time spent up to now is      147.3 secs

     total energy              =    -470.36326360 Ry
     estimated scf accuracy    <       0.00000049 Ry

     iteration #  9     ecut=    12.50 Ry     beta= 0.40
     Davidson diagonalization with overlap

---- Real-time Memory Report at c_bands before calling an iterative solver
            47 MiB given to the printing process from OS
             0 MiB allocation reported by mallinfo(arena+hblkhd)
          5103 MiB available memory on the node where the printing process lives
------------------
     ethr =  1.87E-09,  avg # of iterations =  2.0

     total cpu time spent up to now is      153.6 secs

     total energy              =    -470.36326788 Ry
     estimated scf accuracy    <       0.00000002 Ry

     iteration # 10     ecut=    12.50 Ry     beta= 0.40
     Davidson diagonalization with overlap

---- Real-time Memory Report at c_bands before calling an iterative solver
            47 MiB given to the printing process from OS
             0 MiB allocation reported by mallinfo(arena+hblkhd)
          5100 MiB available memory on the node where the printing process lives
------------------
     ethr =  8.93E-11,  avg # of iterations =  2.0

     total cpu time spent up to now is      162.6 secs

     total energy              =    -470.36326937 Ry
     estimated scf accuracy    <       0.00000001 Ry

     iteration # 11     ecut=    12.50 Ry     beta= 0.40
     Davidson diagonalization with overlap

---- Real-time Memory Report at c_bands before calling an iterative solver
            47 MiB given to the printing process from OS
             0 MiB allocation reported by mallinfo(arena+hblkhd)
          5102 MiB available memory on the node where the printing process lives
------------------
     ethr =  4.35E-11,  avg # of iterations =  2.0

     total cpu time spent up to now is      170.3 secs

     End of self-consistent calculation

          k = 0.0000 0.0000 0.0000 (    93 PWs)   bands (ev):

  -158.1396 -92.0335 -92.0335 -92.0335  -9.7160  -4.1980  -4.1980  -4.1980
     4.7294   4.7294   9.5208  13.5409  13.5409  13.5409  26.6678  26.6678
    34.8398

     occupation numbers 
     1.0000   1.0000   1.0000   1.0000   1.0000   1.0000   1.0000   1.0000
     1.0000   1.0000   1.0000   1.0000   1.0000   1.0000   0.0000   0.0000
     0.0000

          k = 0.0000 0.0000 0.0833 (    89 PWs)   bands (ev):

  -156.8126 -90.0575 -90.0575 -87.7489  -9.6428  -4.1452   3.0195   3.0195
     6.0835   8.4255   9.5162  14.1974  14.1974  14.5195  27.2002  27.2141
    34.6603

     occupation numbers 
     1.0000   1.0000   1.0000   1.0000   1.0000   1.0000   1.0000   1.0000
     1.0000   1.0000   1.0000   1.0000   1.0000   1.0000   0.0000   0.0000
     0.0000

          k = 0.0000 0.0000 0.1667 (    90 PWs)   bands (ev):

  -157.0546 -90.0252 -90.0252 -89.6139  -9.5957  -3.9866   1.3028   2.8642
     2.8642   8.2972   8.8291  14.4075  14.4075  14.7450  26.7627  27.5798
    34.1532

     occupation numbers 
     1.0000   1.0000   1.0000   1.0000   1.0000   1.0000   1.0000   1.0000
     1.0000   1.0000   1.0000   1.0000   1.0000   1.0141   0.0000   0.0000
     0.0000

          k = 0.0000 0.0000 0.2500 (    98 PWs)   bands (ev):

  -159.2616 -95.5121 -94.5942 -94.5942  -9.6511  -9.4777  -9.4777  -9.3669
     0.8456   3.8939   8.1098  13.9762  13.9762  15.1246  23.9664  27.9225
    31.1693

     occupation numbers 
     1.0000   1.0000   1.0000   1.0000   1.0000   1.0000   1.0000   1.0000
     1.0000   1.0000   1.0000   1.0000   1.0000   0.0000   0.0000   0.0000
     0.0000

          k = 0.0000 0.0000 0.3333 (   102 PWs)   bands (ev):

  -160.2574-101.3192 -95.1652 -95.1652 -12.0007 -12.0007 -11.2385  -9.4779
    -9.3387   3.4337   6.6003  14.1514  14.1514  15.2289  22.5686  28.8516
    30.1849

     occupation numbers 
     1.0000   1.0000   1.0000   1.0000   1.0000   1.0000   1.0000   1.0000
     1.0000   1.0000   1.0000   1.0000   1.0000   0.0000   0.0000   0.0000
     0.0000

          k = 0.0000 0.0000 0.4167 (   102 PWs)   bands (ev):

  -160.2255-101.3241 -95.1622 -95.1622 -12.0739 -12.0739 -11.2938  -9.3732
    -9.2114   3.3009   6.0765  14.3982  14.3982  16.1133  21.3148  29.4589
    29.4589

     occupation numbers 
     1.0000   1.0000   1.0000   1.0000   1.0000   1.0000   1.0000   1.0000
     1.0000   1.0000   1.0000   1.0000   1.0000   0.0000   0.0000   0.0000
     0.0000

          k = 0.0000 0.0000-0.5000 (    94 PWs)   bands (ev):

  -157.6663 -95.9344 -90.3094 -90.3094  -9.2019  -6.9920  -6.9920  -2.5638
     3.2566   5.3434   6.6984  15.3649  15.3649  17.8235  22.2556  29.6648
    29.6648

     occupation numbers 
     1.0000   1.0000   1.0000   1.0000   1.0000   1.0000   1.0000   1.0000
     1.0000   1.0000   1.0000   0.0000   0.0000   0.0000   0.0000   0.0000
     0.0000

          k = 0.0000 0.0833 0.0833 (    88 PWs)   bands (ev):

  -156.4729 -89.9610 -87.9958 -87.7137  -9.5977  -1.1955   2.7715   3.3648
     7.6118   8.7703   9.2832  13.3922  14.9272  15.3758  27.2744  27.7282
    33.7265

     occupation numbers 
     1.0000   1.0000   1.0000   1.0000   1.0000   1.0000   1.0000   1.0000
     1.0000   1.0000   1.0000   1.0000   0.0121   0.0000   0.0000   0.0000
     0.0000

          k = 0.0000 0.0833 0.1667 (    90 PWs)   bands (ev):

  -156.9243 -92.2280 -88.6528 -88.4640  -9.6051  -3.1307   0.8299   2.6635
     3.8026   7.7898   8.8342  13.6250  14.8522  15.8799  26.3982  27.6747
    31.7002

     occupation numbers 
     1.0000   1.0000   1.0000   1.0000   1.0000   1.0000   1.0000   1.0000
     1.0000   1.0000   1.0000   1.0000   0.5930   0.0000   0.0000   0.0000
     0.0000

          k = 0.0000 0.0833 0.2500 (    92 PWs)   bands (ev):

  -157.4306 -94.0725 -90.4427 -88.5960  -9.5662  -5.4925  -4.0714   2.6002
     3.7035   6.1854   8.1821  13.6390  14.6178  16.4703  25.0382  28.0795
    31.5194

     occupation numbers 
     1.0000   1.0000   1.0000   1.0000   1.0000   1.0000   1.0000   1.0000
     1.0000   1.0000   1.0000   1.0000   1.0000   0.0000   0.0000   0.0000
     0.0000

          k = 0.0000 0.0833 0.3333 (   101 PWs)   bands (ev):

  -159.9798-100.1251 -95.1885 -94.4891 -12.4037 -11.7787  -9.4585  -8.4859
    -7.2792   3.5402   6.8619  13.3646  14.2918  16.3006  22.2950  28.0680
    30.0898

     occupation numbers 
     1.0000   1.0000   1.0000   1.0000   1.0000   1.0000   1.0000   1.0000
     1.0000   1.0000   1.0000   1.0000   1.0000   0.0000   0.0000   0.0000
     0.0000

          k = 0.0000 0.0833 0.4167 (   102 PWs)   bands (ev):

  -160.2402-101.3099 -95.3114 -95.0091 -12.3662 -12.3221 -11.0540  -9.2119
    -8.6004   3.3188   6.2440  13.5273  14.4524  17.0507  21.0086  28.1544
    29.5219

     occupation numbers 
     1.0000   1.0000   1.0000   1.0000   1.0000   1.0000   1.0000   1.0000
     1.0000   1.0000   1.0000   1.0000   1.0000   0.0000   0.0000   0.0000
     0.0000

          k = 0.0000 0.0833-0.5000 (   102 PWs)   bands (ev):

  -160.1742-101.3734 -95.2764 -94.8711 -12.3507 -11.8891 -11.8009  -9.0989
    -8.4006   3.2732   5.9873  13.5859  14.5259  18.4424  19.3451  28.3118
    29.3515

     occupation numbers 
     1.0000   1.0000   1.0000   1.0000   1.0000   1.0000   1.0000   1.0000
     1.0000   1.0000   1.0000   1.0000   1.0000   0.0000   0.0000   0.0000
     0.0000

          k = 0.0000 0.1667 0.1667 (    96 PWs)   bands (ev):

  -158.7065 -96.2971 -92.4787 -92.3237  -9.9516  -9.9473  -7.3748  -0.5146
     0.7643   2.2305   8.5477  12.5336  14.2490  16.1360  25.0535  27.0091
    30.3755

     occupation numbers 
     1.0000   1.0000   1.0000   1.0000   1.0000   1.0000   1.0000   1.0000
     1.0000   1.0000   1.0000   1.0000   1.0000   0.0000   0.0000   0.0000
     0.0000

          k = 0.0000 0.1667 0.2500 (    95 PWs)   bands (ev):

  -158.3251 -96.1716 -92.6556 -90.2334 -10.0059  -9.5481  -4.6333  -0.4064
     0.6764   3.4841   8.2424  12.6433  14.4457  16.8395  24.0300  27.2692
    31.1743

     occupation numbers 
     1.0000   1.0000   1.0000   1.0000   1.0000   1.0000   1.0000   1.0000
     1.0000   1.0000   1.0000   1.0000   1.0000   0.0000   0.0000   0.0000
     0.0000

          k = 0.0000 0.1667 0.3333 (   100 PWs)   bands (ev):

  -159.6589 -99.6858 -94.9707 -93.3585 -12.0165 -10.2360  -9.4349  -6.4171
    -6.3716   1.9569   7.1214  12.3790  14.4111  17.0849  22.4173  26.8754
    30.4830

     occupation numbers 
     1.0000   1.0000   1.0000   1.0000   1.0000   1.0000   1.0000   1.0000
     1.0000   1.0000   1.0000   1.0000   1.0000   0.0000   0.0000   0.0000
     0.0000

          k = 0.0000 0.1667 0.4167 (    98 PWs)   bands (ev):

  -159.0110 -97.8494 -94.5563 -91.9811 -10.7669  -9.3969  -8.9993  -6.3785
    -4.0559   5.1531   6.7042  12.5555  14.6576  18.8716  21.5032  27.7138
    30.1238

     occupation numbers 
     1.0000   1.0000   1.0000   1.0000   1.0000   1.0000   1.0000   1.0000
     1.0000   1.0000   1.0000   1.0000   1.0000   0.0000   0.0000   0.0000
     0.0000

          k = 0.0000 0.1667-0.5000 (   102 PWs)   bands (ev):

  -160.1622-101.4472 -95.5370 -94.4610 -12.4102 -11.9917 -11.6105  -8.9824
    -8.5500   3.3137   6.3110  12.3296  14.5877  18.4446  19.8054  27.3418
    29.7222

     occupation numbers 
     1.0000   1.0000   1.0000   1.0000   1.0000   1.0000   1.0000   1.0000
     1.0000   1.0000   1.0000   1.0000   1.0000   0.0000   0.0000   0.0000
     0.0000

          k = 0.0000 0.2500 0.2500 (    98 PWs)   bands (ev):

  -159.1230 -98.7233 -92.9276 -92.8485 -10.0363 -10.0080  -8.6314  -5.4049
    -0.4328   0.5950   7.9285  11.1889  14.6157  17.0509  22.5705  27.1935
    31.4514

     occupation numbers 
     1.0000   1.0000   1.0000   1.0000   1.0000   1.0000   1.0000   1.0000
     1.0000   1.0000   1.0000   1.0000   1.0000   0.0000   0.0000   0.0000
     0.0000

          k = 0.0000 0.2500 0.3333 (    99 PWs)   bands (ev):

  -159.2606 -99.9275 -93.3373 -92.7349 -11.0592 -10.6981  -9.2913  -7.0582
    -1.1936   0.8895   7.5205  11.0798  14.7754  17.4056  21.6685  27.2327
    31.2892

     occupation numbers 
     1.0000   1.0000   1.0000   1.0000   1.0000   1.0000   1.0000   1.0000
     1.0000   1.0000   1.0000   1.0000   1.0597   0.0000   0.0000   0.0000
     0.0000

          k = 0.0000 0.2500 0.4167 (    99 PWs)   bands (ev):

  -159.3159 -97.0484 -94.6577 -94.3075 -10.1000  -9.3400  -9.0913  -6.4768
    -4.6036   0.8749   7.2936  11.1702  14.7799  18.1533  21.6732  26.4978
    30.7018

     occupation numbers 
     1.0000   1.0000   1.0000   1.0000   1.0000   1.0000   1.0000   1.0000
     1.0000   1.0000   1.0000   1.0000   1.0679   0.0000   0.0000   0.0000
     0.0000

          k = 0.0000 0.2500-0.5000 (   100 PWs)   bands (ev):

  -159.5616 -99.8374 -94.7211 -93.4609 -13.7975 -10.9076  -9.4167  -4.8531
    -3.8469  -0.5675   6.8814  11.2403  14.8243  17.5636  22.4212  26.2396
    30.6819

     occupation numbers 
     1.0000   1.0000   1.0000   1.0000   1.0000   1.0000   1.0000   1.0000
     1.0000   1.0000   1.0000   1.0000   0.9581   0.0000   0.0000   0.0000
     0.0000

          k = 0.0000 0.3333 0.3333 (    92 PWs)   bands (ev):

  -157.1098 -92.5415 -91.8867 -88.0287  -9.0304  -4.7708  -2.4828   1.0705
     1.2220   5.7482   9.2983  10.8306  15.1629  18.3896  23.5160  27.3342
    31.8331

     occupation numbers 
     1.0000   1.0000   1.0000   1.0000   1.0000   1.0000   1.0000   1.0000
     1.0000   1.0000   1.0000   1.0000   0.0000   0.0000   0.0000   0.0000
     0.0000

          k = 0.0000 0.3333 0.4167 (    97 PWs)   bands (ev):

  -158.5976 -97.8169 -92.8913 -91.5163 -12.5279  -9.0725  -8.8381  -0.7257
     0.1738   0.9315   7.8719  10.4656  15.1579  16.5159  23.7458  26.8068
    30.7204

     occupation numbers 
     1.0000   1.0000   1.0000   1.0000   1.0000   1.0000   1.0000   1.0000
     1.0000   1.0000   1.0000   1.0000   0.0000   0.0000   0.0000   0.0000
     0.0000

          k = 0.0000 0.3333-0.5000 (   100 PWs)   bands (ev):

  -159.5134 -99.7528 -94.7146 -93.2054 -13.8208 -10.8826  -9.2500  -4.8771
    -3.6933  -0.5795   7.6484  10.4200  14.9715  16.0801  23.6911  26.0277
    30.3517

     occupation numbers 
     1.0000   1.0000   1.0000   1.0000   1.0000   1.0000   1.0000   1.0000
     1.0000   1.0000   1.0000   1.0000   0.0002   0.0000   0.0000   0.0000
     0.0000

          k = 0.0000 0.4167 0.4167 (   100 PWs)   bands (ev):

  -159.4841 -99.4862 -94.4889 -93.8903 -18.2158 -10.6633  -9.1160  -4.7062
    -2.6621   4.0690   8.4236   9.3977  14.6447  15.1025  24.2792  26.2538
    29.6638

     occupation numbers 
     1.0000   1.0000   1.0000   1.0000   1.0000   1.0000   1.0000   1.0000
     1.0000   1.0000   1.0000   1.0000   1.0000   0.0000   0.0000   0.0000
     0.0000

          k = 0.0000 0.4167-0.5000 (    98 PWs)   bands (ev):

  -158.9070 -97.0287 -95.2862 -91.9848 -18.2730  -8.9769  -4.7574  -4.7399
    -0.0031   3.6387   8.6018   9.2736  14.1431  15.3970  25.7551  26.3018
    28.9696

     occupation numbers 
     1.0000   1.0000   1.0000   1.0000   1.0000   1.0000   1.0000   1.0000
     1.0000   1.0000   1.0000   1.0000   1.0000   0.0000   0.0000   0.0000
     0.0000

          k = 0.0000-0.5000-0.5000 (    96 PWs)   bands (ev):

  -158.4006 -94.3588 -94.3588 -92.0812 -17.1807  -8.7787  -4.8024  -4.8024
     2.3105   9.1832   9.1832  10.4902  13.6454  15.4035  26.2982  26.2982
    28.9806

     occupation numbers 
     1.0000   1.0000   1.0000   1.0000   1.0000   1.0000   1.0000   1.0000
     1.0000   1.0000   1.0000   1.0000   1.0000   0.0000   0.0000   0.0000
     0.0000

          k = 0.0833 0.0833 0.0833 (    93 PWs)   bands (ev):

  -157.9557 -93.2554 -91.1654 -91.1654 -10.6073  -8.6013  -1.8927  -1.8927
     6.0357   6.0357   9.0648  13.3795  13.3795  15.1677  27.3878  27.3878
    30.6771

     occupation numbers 
     1.0000   1.0000   1.0000   1.0000   1.0000   1.0000   1.0000   1.0000
     1.0000   1.0000   1.0000   1.0000   1.0000   0.0000   0.0000   0.0000
     0.0000

          k = 0.0833 0.0833 0.1667 (    92 PWs)   bands (ev):

  -157.5277 -94.0434 -90.0846 -89.2602  -9.9435  -7.6184  -0.4032   1.9068
     2.0100   7.3399   8.7699  13.4002  14.1787  15.8748  26.6973  27.7870
    30.0361

     occupation numbers 
     1.0000   1.0000   1.0000   1.0000   1.0000   1.0000   1.0000   1.0000
     1.0000   1.0000   1.0000   1.0000   1.0000   0.0000   0.0000   0.0000
     0.0000

          k = 0.0833 0.0833 0.2500 (    94 PWs)   bands (ev):

  -158.0369 -95.3712 -92.2034 -89.5615  -9.8404  -7.7775  -4.7655  -2.4125
     1.5883   7.1723   8.1999  13.3415  14.2142  16.4741  25.0280  27.6957
    30.3674

     occupation numbers 
     1.0000   1.0000   1.0000   1.0000   1.0000   1.0000   1.0000   1.0000
     1.0000   1.0000   1.0000   1.0000   1.0000   0.0000   0.0000   0.0000
     0.0000

          k = 0.0833 0.0833 0.3333 (    98 PWs)   bands (ev):

  -159.0606 -98.5851 -94.5024 -91.2502 -10.9399 -10.3337  -9.2249  -6.1648
    -1.3883   4.8219   7.0709  13.3560  13.9787  16.7379  22.9444  27.7585
    30.6033

     occupation numbers 
     1.0000   1.0000   1.0000   1.0000   1.0000   1.0000   1.0000   1.0000
     1.0000   1.0000   1.0000   1.0000   1.0000   0.0000   0.0000   0.0000
     0.0000

          k = 0.0833 0.0833 0.4167 (   102 PWs)   bands (ev):

  -160.1999-101.1679 -95.3178 -94.9220 -12.3104 -11.9723 -11.1216  -9.5723
    -8.6715   3.3360   6.3272  13.2329  14.1567  17.4062  21.0874  27.5486
    29.6773

     occupation numbers 
     1.0000   1.0000   1.0000   1.0000   1.0000   1.0000   1.0000   1.0000
     1.0000   1.0000   1.0000   1.0000   1.0000   0.0000   0.0000   0.0000
     0.0000

          k = 0.0833 0.0833-0.5000 (    98 PWs)   bands (ev):

  -158.8592 -98.7620 -95.2282 -90.0995 -12.0849  -9.0975  -8.1499  -6.8914
    -1.3678   3.3063   6.4007  13.3725  15.1016  19.1332  20.3325  27.6742
    29.9730

     occupation numbers 
     1.0000   1.0000   1.0000   1.0000   1.0000   1.0000   1.0000   1.0000
     1.0000   1.0000   1.0000   1.0000   0.0000   0.0000   0.0000   0.0000
     0.0000

          k = 0.0833 0.1667 0.1667 (    94 PWs)   bands (ev):

  -158.0468 -95.4928 -92.0014 -89.6461  -9.9267  -7.9201  -3.5384  -0.2321
     2.2459   2.8860   8.5571  12.6204  14.2786  16.6559  25.7679  27.0887
    29.4903

     occupation numbers 
     1.0000   1.0000   1.0000   1.0000   1.0000   1.0000   1.0000   1.0000
     1.0000   1.0000   1.0000   1.0000   1.0000   0.0000   0.0000   0.0000
     0.0000

          k = 0.0833 0.1667 0.2500 (    95 PWs)   bands (ev):

  -158.2756 -95.9053 -92.0545 -90.8768  -9.5314  -8.1103  -5.9597  -2.2547
     1.0498   4.1895   8.3089  12.6721  14.2579  17.1989  24.3244  26.7733
    29.8714

     occupation numbers 
     1.0000   1.0000   1.0000   1.0000   1.0000   1.0000   1.0000   1.0000
     1.0000   1.0000   1.0000   1.0000   1.0000   0.0000   0.0000   0.0000
     0.0000

          k = 0.0833 0.1667 0.3333 (    98 PWs)   bands (ev):

  -159.0270 -98.5632 -94.0374 -91.5405 -11.0575  -9.4132  -8.2671  -6.2095
    -0.9777   2.3349   7.3500  12.4777  14.1829  17.3852  22.8123  26.4985
    30.3835

     occupation numbers 
     1.0000   1.0000   1.0000   1.0000   1.0000   1.0000   1.0000   1.0000
     1.0000   1.0000   1.0000   1.0000   1.0000   0.0000   0.0000   0.0000
     0.0000

          k = 0.0833 0.1667 0.4167 (    99 PWs)   bands (ev):

  -159.2520 -99.1157 -94.5643 -92.2103 -11.7516 -11.2067  -9.0852  -7.3822
    -3.0792   4.5376   6.7342  12.4237  14.2456  18.4505  21.5732  26.6574
    31.0466

     occupation numbers 
     1.0000   1.0000   1.0000   1.0000   1.0000   1.0000   1.0000   1.0000
     1.0000   1.0000   1.0000   1.0000   1.0000   0.0000   0.0000   0.0000
     0.0000

          k = 0.0833 0.1667-0.5000 (   102 PWs)   bands (ev):

  -160.1011-101.3348 -95.4009 -94.3037 -12.3325 -11.9440 -11.5655  -8.9459
    -8.4710   3.3435   6.4175  12.3122  14.2497  18.3753  20.2247  26.5389
    30.2314

     occupation numbers 
     1.0000   1.0000   1.0000   1.0000   1.0000   1.0000   1.0000   1.0000
     1.0000   1.0000   1.0000   1.0000   1.0000   0.0000   0.0000   0.0000
     0.0000

          k = 0.0833 0.2500 0.2500 (    98 PWs)   bands (ev):

  -159.0627 -98.6217 -92.8205 -92.6571  -9.9771  -9.9532  -8.5892  -5.3556
    -0.3964   0.6382   7.9991  11.2825  14.0980  17.3415  22.9049  27.0277
    30.0858

     occupation numbers 
     1.0000   1.0000   1.0000   1.0000   1.0000   1.0000   1.0000   1.0000
     1.0000   1.0000   1.0000   1.0000   1.0000   0.0000   0.0000   0.0000
     0.0000

          k = 0.0833 0.2500 0.3333 (    99 PWs)   bands (ev):

  -159.2438 -99.2102 -94.5726 -91.9042 -11.2992  -9.2738  -8.3731  -7.9810
    -2.1849   1.3098   7.7363  11.2119  14.2873  17.5269  22.0757  26.3159
    30.2123

     occupation numbers 
     1.0000   1.0000   1.0000   1.0000   1.0000   1.0000   1.0000   1.0000
     1.0000   1.0000   1.0000   1.0000   1.0000   0.0000   0.0000   0.0000
     0.0000

          k = 0.0833 0.2500 0.4167 (    98 PWs)   bands (ev):

  -158.9364 -97.5323 -94.4238 -92.1315 -11.9826  -9.1903  -7.6005  -3.8851
    -2.7370   0.9536   7.2942  11.2451  14.5001  18.0112  22.4730  25.7946
    31.0006

     occupation numbers 
     1.0000   1.0000   1.0000   1.0000   1.0000   1.0000   1.0000   1.0000
     1.0000   1.0000   1.0000   1.0000   1.0000   0.0000   0.0000   0.0000
     0.0000

          k = 0.0833 0.2500-0.5000 (   102 PWs)   bands (ev):

  -160.0997-100.5884 -96.2058 -94.3455 -14.0364 -12.1968  -9.5053  -6.9160
    -6.9136  -1.3851   6.9693  11.0752  14.3578  17.3122  21.9628  25.1290
    31.0634

     occupation numbers 
     1.0000   1.0000   1.0000   1.0000   1.0000   1.0000   1.0000   1.0000
     1.0000   1.0000   1.0000   1.0000   1.0000   0.0000   0.0000   0.0000
     0.0000

          k = 0.0833 0.3333 0.3333 (    96 PWs)   bands (ev):

  -158.2584 -96.8252 -92.5737 -90.6180  -9.6730  -9.4026  -8.9761  -1.5830
    -0.1938   4.7375   8.5317  10.5246  14.5887  17.8687  22.2966  26.8904
    30.5667

     occupation numbers 
     1.0000   1.0000   1.0000   1.0000   1.0000   1.0000   1.0000   1.0000
     1.0000   1.0000   1.0000   1.0000   1.0000   0.0000   0.0000   0.0000
     0.0000

          k = 0.0833 0.3333 0.4167 (    98 PWs)   bands (ev):

  -158.9253 -97.0200 -93.8986 -93.1253 -13.1774  -9.0505  -7.6952  -4.9976
    -0.0022   0.3670   8.0650  10.2207  14.7352  16.8336  23.5632  25.8811
    30.3298

     occupation numbers 
     1.0000   1.0000   1.0000   1.0000   1.0000   1.0000   1.0000   1.0000
     1.0000   1.0000   1.0000   1.0000   1.0073   0.0000   0.0000   0.0000
     0.0000

          k = 0.0833 0.3333-0.5000 (    98 PWs)   bands (ev):

  -158.8565 -98.8879 -93.6858 -91.4256 -13.7636  -9.2247  -8.3579  -2.8933
    -1.8024   1.1522   7.7775  10.6243  14.8118  16.2414  24.3083  25.5546
    30.4070

     occupation numbers 
     1.0000   1.0000   1.0000   1.0000   1.0000   1.0000   1.0000   1.0000
     1.0000   1.0000   1.0000   1.0000   1.0462   0.0000   0.0000   0.0000
     0.0000

          k = 0.0833 0.4167 0.4167 (   101 PWs)   bands (ev):

  -159.7867 -98.7928 -96.3335 -94.3670 -18.1761 -10.5534  -9.1080  -8.0807
    -4.1689   4.9074   8.4585   9.4655  14.6414  14.7301  24.4967  25.1421
    29.5184

     occupation numbers 
     1.0000   1.0000   1.0000   1.0000   1.0000   1.0000   1.0000   1.0000
     1.0000   1.0000   1.0000   1.0000   1.0000   1.0050   0.0000   0.0000
     0.0000

          k = 0.0833 0.4167-0.5000 (   100 PWs)   bands (ev):

  -159.4875 -98.1182 -96.2289 -93.4127 -18.2435  -8.9619  -8.4397  -7.8747
    -0.2145   2.4855   8.7061   9.2737  14.1774  14.8033  24.9554  25.2838
    29.2801

     occupation numbers 
     1.0000   1.0000   1.0000   1.0000   1.0000   1.0000   1.0000   1.0000
     1.0000   1.0000   1.0000   1.0000   1.0000   1.0749   0.0000   0.0000
     0.0000

          k = 0.0833-0.5000-0.5000 (   100 PWs)   bands (ev):

  -159.5348 -96.2250 -96.2250 -95.3593 -17.1309 -10.6569 -10.6569  -8.7801
     1.5690   5.9118   9.2546   9.2546  13.6722  14.6982  25.1254  25.1254
    28.9379

     occupation numbers 
     1.0000   1.0000   1.0000   1.0000   1.0000   1.0000   1.0000   1.0000
     1.0000   1.0000   1.0000   1.0000   1.0000   1.0003   0.0000   0.0000
     0.0000

          k = 0.1667 0.1667 0.1667 (    99 PWs)   bands (ev):

  -159.4952 -96.6781 -94.8483 -94.8483 -10.5260  -8.7244  -7.5345  -7.5345
    -2.5494  -2.5494   8.4696  12.8073  12.8073  16.7047  26.2703  26.2703
    26.8174

     occupation numbers 
     1.0000   1.0000   1.0000   1.0000   1.0000   1.0000   1.0000   1.0000
     1.0000   1.0000   1.0000   1.0000   1.0000   0.0000   0.0000   0.0000
     0.0000

          k = 0.1667 0.1667 0.2500 (    96 PWs)   bands (ev):

  -158.4574 -96.0664 -93.8921 -90.3664  -9.6804  -8.0193  -5.3954  -2.5928
    -0.3176   0.0942   8.3853  12.6207  13.6506  17.4897  25.0564  25.8748
    28.1721

     occupation numbers 
     1.0000   1.0000   1.0000   1.0000   1.0000   1.0000   1.0000   1.0000
     1.0000   1.0000   1.0000   1.0000   1.0000   0.0000   0.0000   0.0000
     0.0000

          k = 0.1667 0.1667 0.3333 (   100 PWs)   bands (ev):

  -159.5253 -98.5888 -95.9621 -92.8038 -11.5102 -10.1847  -9.1962  -7.1833
    -2.7746  -1.6733   7.5937  12.1409  13.3813  17.6483  23.0162  25.0725
    29.1692

     occupation numbers 
     1.0000   1.0000   1.0000   1.0000   1.0000   1.0000   1.0000   1.0000
     1.0000   1.0000   1.0000   1.0000   1.0000   0.0000   0.0000   0.0000
     0.0000

          k = 0.1667 0.1667 0.4167 (    98 PWs)   bands (ev):

  -158.6596-100.5319 -92.4033 -90.3355 -11.2872 -10.7940  -9.5151  -7.7371
     1.6766   4.5927   7.0824  12.1088  14.1531  18.3069  22.0296  25.7473
    31.0408

     occupation numbers 
     1.0000   1.0000   1.0000   1.0000   1.0000   1.0000   1.0000   1.0000
     1.0000   1.0000   1.0000   1.0000   1.0000   0.0000   0.0000   0.0000
     0.0000

          k = 0.1667 0.1667-0.5000 (    94 PWs)   bands (ev):

  -157.5282 -96.9030 -90.1427 -89.0322  -9.3221  -7.5058  -5.7482  -3.1362
     3.1845   5.7422   7.0291  12.3482  14.5579  19.3534  22.5429  25.6381
    32.6739

     occupation numbers 
     1.0000   1.0000   1.0000   1.0000   1.0000   1.0000   1.0000   1.0000
     1.0000   1.0000   1.0000   1.0000   1.0000   0.0000   0.0000   0.0000
     0.0000

          k = 0.1667 0.2500 0.2500 (    99 PWs)   bands (ev):

  -159.2089 -98.0911 -94.5050 -92.9084 -10.9153  -9.2407  -7.4058  -6.1463
    -2.5618  -2.4157   8.1782  11.5133  13.5828  17.6828  24.0826  25.6843
    27.1898

     occupation numbers 
     1.0000   1.0000   1.0000   1.0000   1.0000   1.0000   1.0000   1.0000
     1.0000   1.0000   1.0000   1.0000   1.0000   0.0000   0.0000   0.0000
     0.0000

          k = 0.1667 0.2500 0.3333 (    96 PWs)   bands (ev):

  -158.2673 -96.0515 -92.7197 -90.9675  -9.1122  -9.0712  -6.9949  -1.3849
    -0.9590   2.4577   8.0846  11.4653  13.7143  18.6052  23.2709  25.2885
    29.5567

     occupation numbers 
     1.0000   1.0000   1.0000   1.0000   1.0000   1.0000   1.0000   1.0000
     1.0000   1.0000   1.0000   1.0000   1.0000   0.0000   0.0000   0.0000
     0.0000

          k = 0.1667 0.2500 0.4167 (    98 PWs)   bands (ev):

  -158.7703 -98.3863 -93.9693 -91.0298 -11.8054  -9.6311  -9.0991  -3.4416
    -2.3467   2.7029   7.5220  11.4379  13.5802  17.8925  23.1405  24.5016
    30.8874

     occupation numbers 
     1.0000   1.0000   1.0000   1.0000   1.0000   1.0000   1.0000   1.0000
     1.0000   1.0000   1.0000   1.0000   1.0000   0.0000   0.0000   0.0000
     0.0000

          k = 0.1667 0.2500-0.5000 (   100 PWs)   bands (ev):

  -159.3427 -99.6372 -95.8385 -91.5298 -13.8694 -11.1246  -9.2044  -3.8422
    -3.6947  -0.8120   7.2816  11.3283  13.6229  17.5269  22.9976  23.8807
    31.8490

     occupation numbers 
     1.0000   1.0000   1.0000   1.0000   1.0000   1.0000   1.0000   1.0000
     1.0000   1.0000   1.0000   1.0000   1.0000   0.0000   0.0000   0.0000
     0.0000

          k = 0.1667 0.3333 0.3333 (    97 PWs)   bands (ev):

  -158.5299 -96.3042 -92.7657 -92.5690 -11.3784  -8.9516  -8.5900  -4.3832
    -2.2313   6.6058   8.9079  10.6677  13.5911  18.0896  22.9752  25.0043
    29.2597

     occupation numbers 
     1.0000   1.0000   1.0000   1.0000   1.0000   1.0000   1.0000   1.0000
     1.0000   1.0000   1.0000   1.0000   1.0000   0.0000   0.0000   0.0000
     0.0000

          k = 0.1667 0.3333 0.4167 (   100 PWs)   bands (ev):

  -159.4140 -97.6191 -96.4114 -93.2067 -15.7925  -9.1899  -7.3048  -6.9595
    -4.8389   2.2661   8.1955  10.2701  13.8455  16.5676  23.1703  24.1983
    29.8626

     occupation numbers 
     1.0000   1.0000   1.0000   1.0000   1.0000   1.0000   1.0000   1.0000
     1.0000   1.0000   1.0000   1.0000   1.0000   0.0000   0.0000   0.0000
     0.0000

          k = 0.1667 0.3333-0.5000 (   100 PWs)   bands (ev):

  -159.4106 -98.7860 -95.7699 -92.6623 -17.0242  -9.2801  -8.2337  -6.3540
    -2.2809   0.9963   8.0305  10.3418  14.0203  16.0684  23.8000  23.8762
    31.5211

     occupation numbers 
     1.0000   1.0000   1.0000   1.0000   1.0000   1.0000   1.0000   1.0000
     1.0000   1.0000   1.0000   1.0000   1.0000   0.0000   0.0000   0.0000
     0.0000

          k = 0.1667 0.4167 0.4167 (    97 PWs)   bands (ev):

  -158.5167 -95.9380 -93.4150 -92.3471 -14.7385  -8.9060  -5.9713  -3.8249
    -1.4568   6.5613   9.2935  10.0988  14.1862  15.7761  23.9322  24.1473
    29.8906

     occupation numbers 
     1.0000   1.0000   1.0000   1.0000   1.0000   1.0000   1.0000   1.0000
     1.0000   1.0000   1.0000   1.0000   1.0000   0.0000   0.0000   0.0000
     0.0000

          k = 0.1667 0.4167-0.5000 (   100 PWs)   bands (ev):

  -159.3754 -96.9530 -96.7628 -93.3763 -16.1847 -10.4701  -8.7899  -6.3515
     0.0304   0.7570   8.9867   9.9290  14.0054  14.8357  23.8869  23.9602
    30.4601

     occupation numbers 
     1.0000   1.0000   1.0000   1.0000   1.0000   1.0000   1.0000   1.0000
     1.0000   1.0000   1.0000   1.0000   1.0000   0.8305   0.0000   0.0000
     0.0000

          k = 0.1667-0.5000-0.5000 (   100 PWs)   bands (ev):

  -159.4571 -96.1723 -96.1723 -94.9811 -16.9814 -10.6015 -10.6015  -8.7094
     1.7178   5.8246   9.5474   9.5474  13.9280  14.0769  23.8239  23.8239
    30.3241

     occupation numbers 
     1.0000   1.0000   1.0000   1.0000   1.0000   1.0000   1.0000   1.0000
     1.0000   1.0000   1.0000   1.0000   1.0000   1.0000   0.0000   0.0000
     0.0000

          k = 0.2500 0.2500 0.2500 (   105 PWs)   bands (ev):

  -160.8894-100.7478 -97.4471 -97.4471 -13.7000 -13.7000 -10.4305  -8.8661
    -8.1925  -8.1925   8.0599  11.3111  11.3111  17.4200  24.5736  24.5736
    25.6749

     occupation numbers 
     1.0000   1.0000   1.0000   1.0000   1.0000   1.0000   1.0000   1.0000
     1.0000   1.0000   1.0000   1.0000   1.0000   0.0000   0.0000   0.0000
     0.0000

          k = 0.2500 0.2500 0.3333 (    96 PWs)   bands (ev):

  -158.1539 -95.0211 -92.8659 -91.7957  -9.5926  -9.1378  -8.9384  -1.3690
    -0.6930   4.4219   8.5740  11.6799  13.0895  18.7694  23.5948  24.0809
    28.1418

     occupation numbers 
     1.0000   1.0000   1.0000   1.0000   1.0000   1.0000   1.0000   1.0000
     1.0000   1.0000   1.0000   1.0000   1.0000   0.0000   0.0000   0.0000
     0.0000

          k = 0.2500 0.2500 0.4167 (    99 PWs)   bands (ev):

  -158.9946 -97.3256 -93.9131 -93.7781 -12.2198 -10.1654  -8.8702  -6.8281
    -0.8830   1.2997   8.1587  11.4251  12.9060  17.7565  22.5603  23.1313
    29.1791

     occupation numbers 
     1.0000   1.0000   1.0000   1.0000   1.0000   1.0000   1.0000   1.0000
     1.0000   1.0000   1.0000   1.0000   1.0000   0.0000   0.0000   0.0000
     0.0000

          k = 0.2500 0.2500-0.5000 (    98 PWs)   bands (ev):

  -158.6868 -96.9185 -93.1804 -93.0644 -10.2410  -9.0907  -7.5376  -6.3874
    -3.8922   2.7342   7.7816  11.3882  13.4188  18.1052  22.3075  23.3264
    30.7337

     occupation numbers 
     1.0000   1.0000   1.0000   1.0000   1.0000   1.0000   1.0000   1.0000
     1.0000   1.0000   1.0000   1.0000   1.0000   0.0000   0.0000   0.0000
     0.0000

          k = 0.2500 0.3333 0.3333 (   100 PWs)   bands (ev):

  -159.2840 -98.5721 -94.7888 -93.7126 -15.5102 -13.9025  -8.8896  -4.0026
    -1.8067   2.8184   8.7602  11.0403  12.5375  17.6009  22.6945  23.2869
    27.6723

     occupation numbers 
     1.0000   1.0000   1.0000   1.0000   1.0000   1.0000   1.0000   1.0000
     1.0000   1.0000   1.0000   1.0000   1.0000   0.0000   0.0000   0.0000
     0.0000

          k = 0.2500 0.3333 0.4167 (   103 PWs)   bands (ev):

  -160.1905 -98.6083 -97.9087 -95.6584 -16.0704 -14.2771  -9.1138  -8.8045
    -5.4686  -0.0721   8.7076  10.6341  12.2289  16.6536  21.7754  22.9261
    27.9242

     occupation numbers 
     1.0000   1.0000   1.0000   1.0000   1.0000   1.0000   1.0000   1.0000
     1.0000   1.0000   1.0000   1.0000   1.0000   0.0000   0.0000   0.0000
     0.0000

          k = 0.2500 0.3333-0.5000 (   102 PWs)   bands (ev):

  -159.8290 -98.0923 -97.0587 -95.2052 -14.8550 -12.1047 -10.1071  -8.2375
    -3.0346  -2.6746   8.3813  10.7063  13.1280  17.0514  21.9236  22.9081
    28.2118

     occupation numbers 
     1.0000   1.0000   1.0000   1.0000   1.0000   1.0000   1.0000   1.0000
     1.0000   1.0000   1.0000   1.0000   1.0000   0.0000   0.0000   0.0000
     0.0000

          k = 0.2500 0.4167 0.4167 (   101 PWs)   bands (ev):

  -159.4810 -99.5369 -95.3807 -93.6481 -15.0956 -13.7689  -8.6637  -5.3572
    -4.6290   1.5363   9.6263  10.5112  12.7125  16.2314  22.2258  22.6486
    27.0688

     occupation numbers 
     1.0000   1.0000   1.0000   1.0000   1.0000   1.0000   1.0000   1.0000
     1.0000   1.0000   1.0000   1.0000   1.0000   0.0000   0.0000   0.0000
     0.0000

          k = 0.2500 0.4167-0.5000 (   104 PWs)   bands (ev):

  -160.3496-101.1311 -96.9453 -95.5232 -16.5070 -14.0202 -11.6432  -8.7829
    -6.6223  -0.0066   9.4161  10.2106  12.3296  15.4134  22.1370  22.5651
    26.4880

     occupation numbers 
     1.0000   1.0000   1.0000   1.0000   1.0000   1.0000   1.0000   1.0000
     1.0000   1.0000   1.0000   1.0000   1.0000   0.0000   0.0000   0.0000
     0.0000

          k = 0.2500-0.5000-0.5000 (   104 PWs)   bands (ev):

  -160.3590-101.2589 -96.1739 -96.1739 -16.7321 -12.9175 -11.7617 -11.7617
    -8.6828   5.7395   9.9623   9.9623  12.1512  14.7325  22.3477  22.3477
    25.9826

     occupation numbers 
     1.0000   1.0000   1.0000   1.0000   1.0000   1.0000   1.0000   1.0000
     1.0000   1.0000   1.0000   1.0000   1.0000   1.0060   0.0000   0.0000
     0.0000

          k = 0.3333 0.3333 0.3333 (    99 PWs)   bands (ev):

  -158.8274 -99.5240 -92.7149 -92.7149 -15.3151 -15.3151  -8.7844   1.0768
     1.0768   1.2730   8.9804  11.9215  11.9215  17.7483  22.0247  22.0247
    27.0898

     occupation numbers 
     1.0000   1.0000   1.0000   1.0000   1.0000   1.0000   1.0000   1.0000
     1.0000   1.0000   1.0000   1.0000   1.0000   0.0000   0.0000   0.0000
     0.0000

          k = 0.3333 0.3333 0.4167 (   102 PWs)   bands (ev):

  -159.6603-101.2642 -95.2476 -93.5319 -15.9602 -15.6922  -8.8751  -5.1884
    -3.6356  -0.0008   9.1629  10.8527  12.4028  17.1541  21.0442  21.8820
    26.1947

     occupation numbers 
     1.0000   1.0000   1.0000   1.0000   1.0000   1.0000   1.0000   1.0000
     1.0000   1.0000   1.0000   1.0000   1.0000   0.0000   0.0000   0.0000
     0.0000

          k = 0.3333 0.3333-0.5000 (   104 PWs)   bands (ev):

  -160.2572-100.9430 -97.7147 -94.7461 -15.9488 -14.5817 -10.7904  -8.1477
    -6.1773  -2.6147   9.1059  10.3561  12.4495  17.2907  20.4625  21.7020
    25.8867

     occupation numbers 
     1.0000   1.0000   1.0000   1.0000   1.0000   1.0000   1.0000   1.0000
     1.0000   1.0000   1.0000   1.0000   1.0000   0.0000   0.0000   0.0000
     0.0000

          k = 0.3333 0.4167 0.4167 (   100 PWs)   bands (ev):

  -158.9602-100.5509 -93.2681 -92.4279 -14.9164 -13.5167  -8.6156  -4.9571
    -2.9287   3.0818   9.8447  11.0490  12.9424  17.5220  20.8731  21.2956
    25.0437

     occupation numbers 
     1.0000   1.0000   1.0000   1.0000   1.0000   1.0000   1.0000   1.0000
     1.0000   1.0000   1.0000   1.0000   1.0000   0.0000   0.0000   0.0000
     0.0000

          k = 0.3333 0.4167-0.5000 (    96 PWs)   bands (ev):

  -157.6535 -98.3038 -90.1711 -89.8526 -11.1732 -10.1789  -8.4215  -3.3351
     1.9980   7.6543  10.9947  10.9979  13.3786  17.2193  20.7939  21.3928
    24.4922

     occupation numbers 
     1.0000   1.0000   1.0000   1.0000   1.0000   1.0000   1.0000   1.0000
     1.0000   1.0000   1.0000   1.0000   1.0000   0.0000   0.0000   0.0000
     0.0000

          k = 0.3333-0.5000-0.5000 (    96 PWs)   bands (ev):

  -157.6523 -98.3622 -89.9465 -89.9465 -12.0508  -8.3879  -4.0281  -3.7088
    -3.7088   8.0896  11.3661  11.3661  12.8254  16.5857  21.1625  21.1625
    23.7931

     occupation numbers 
     1.0000   1.0000   1.0000   1.0000   1.0000   1.0000   1.0000   1.0000
     1.0000   1.0000   1.0000   1.0000   1.0000   0.0000   0.0000   0.0000
     0.0000

          k = 0.4167 0.4167 0.4167 (   100 PWs)   bands (ev):

  -158.8302-100.6812 -92.3954 -92.3954 -15.0457 -15.0457  -8.5381  -3.3961
     1.2092   1.2092  10.0649  11.9608  11.9608  17.5237  20.2825  20.2825
    23.4926

     occupation numbers 
     1.0000   1.0000   1.0000   1.0000   1.0000   1.0000   1.0000   1.0000
     1.0000   1.0000   1.0000   1.0000   1.0000   0.0000   0.0000   0.0000
     0.0000

          k = 0.4167 0.4167-0.5000 (    92 PWs)   bands (ev):

  -156.5012 -94.7422 -87.9940 -87.6614  -9.7897  -8.2648  -5.6938   2.7349
     7.2342   7.8562  11.9878  12.3951  14.9308  18.4321  19.9728  20.4903
    22.7755

     occupation numbers 
     1.0000   1.0000   1.0000   1.0000   1.0000   1.0000   1.0000   1.0000
     1.0000   1.0000   1.0000   1.0000   0.0091   0.0000   0.0000   0.0000
     0.0000

          k = 0.4167-0.5000-0.5000 (    88 PWs)   bands (ev):

  -155.4886 -87.5005 -87.5005 -87.4467  -8.1683  -2.6400  -2.6221   7.7946
     7.7946   7.9809  14.7020  14.7020  14.9068  18.6362  20.1280  20.1280
    21.8704

     occupation numbers 
     1.0000   1.0000   1.0000   1.0000   1.0000   1.0000   1.0000   1.0000
     1.0000   1.0000   1.0004   1.0004   0.0526   0.0000   0.0000   0.0000
     0.0000

          k =-0.5000-0.5000-0.5000 (    88 PWs)   bands (ev):

  -155.5481 -87.6005 -87.6005 -87.6005  -8.1470  -2.6925  -2.6925   7.8734
     7.8734   7.8734  14.7793  14.7793  14.7793  19.7288  19.7288  19.7288
    20.5098

     occupation numbers 
     1.0000   1.0000   1.0000   1.0000   1.0000   1.0000   1.0000   1.0000
     1.0000   1.0000   1.0668   1.0668   1.0668   0.0000   0.0000   0.0000
     0.0000

     the Fermi energy is    14.8654 ev

!    total energy              =    -470.36327023 Ry
     estimated scf accuracy    <          3.0E-09 Ry
     smearing contrib. (-TS)   =       0.00004669 Ry
     internal energy E=F+TS    =    -470.36331692 Ry

     The total energy is F=E-TS. E is the sum of the following terms:
     one-electron contribution =    -265.08081172 Ry
     hartree contribution      =     127.45564419 Ry
     xc contribution           =     -42.18461343 Ry
     ewald contribution        =    -281.02274360 Ry
     one-center paw contrib.   =      -9.53079236 Ry
      -> PAW hartree energy AE =      38.35671159 Ry
      -> PAW hartree energy PS =     -38.38650793 Ry
      -> PAW xc energy AE      =     -18.52201343 Ry
      -> PAW xc energy PS      =       9.02101741 Ry
      -> total E_H with PAW    =     127.42584785 Ry
      -> total E_XC with PAW   =     -51.68560945 Ry

     convergence has been achieved in  11 iterations

     Forces acting on atoms (cartesian axes, Ry/au):

     atom    1 type  2   force =     0.00000000    0.00000000    0.00000000
     atom    2 type  1   force =     0.00000000    0.00000000    0.00000000
     The non-local contrib.  to forces
     atom    1 type  2   force =     0.00000000    0.00000000    0.00000000
     atom    2 type  1   force =     0.00000000    0.00000000    0.00000000
     The ionic contribution  to forces
     atom    1 type  2   force =    -0.00000000   -0.00000000   -0.00000000
     atom    2 type  1   force =     0.00000000    0.00000000    0.00000000
     The local contribution  to forces
     atom    1 type  2   force =     0.00000000    0.00000000    0.00000000
     atom    2 type  1   force =     0.00000000    0.00000000    0.00000000
     The core correction contribution to forces
     atom    1 type  2   force =     0.00000000    0.00000000    0.00000000
     atom    2 type  1   force =     0.00000000   -0.00000000   -0.00000000
     The Hubbard contrib.    to forces
     atom    1 type  2   force =     0.00000000    0.00000000    0.00000000
     atom    2 type  1   force =     0.00000000    0.00000000    0.00000000
     The SCF correction term to forces
     atom    1 type  2   force =     0.00000000    0.00000000    0.00000000
     atom    2 type  1   force =     0.00000000   -0.00000000    0.00000000

     Total force =     0.000000     Total SCF correction =     0.000000


     Computing stress (Cartesian axis) and pressure

          total   stress  (Ry/bohr**3)                   (kbar)     P=  -108352.17
  -0.73656312   0.00000000   0.00000000      -108352.17        0.00        0.00
   0.00000000  -0.73656312   0.00000000            0.00  -108352.17        0.00
   0.00000000   0.00000000  -0.73656312            0.00        0.00  -108352.17

     kinetic stress (kbar)  62158.63      0.00      0.00
                                0.00  62158.63      0.00
                                0.00      0.00  62158.63

     local   stress (kbar)  -1571.06      0.00     -0.00
                                0.00  -1571.06     -0.00
                               -0.00     -0.00  -1571.06

     nonloc. stress (kbar) -96804.60      0.00      0.00
                                0.00 -96804.60      0.00
                                0.00      0.00 -96804.60

     hartree stress (kbar)  47480.30     -0.00      0.00
                               -0.00  47480.30      0.00
                                0.00      0.00  47480.30

     exc-cor stress (kbar) -14521.04      0.00     -0.00
                                0.00 -14521.04      0.00
                               -0.00      0.00 -14521.04

     corecor stress (kbar)   -406.66     -0.00     -0.00
                               -0.00   -406.66      0.00
                               -0.00      0.00   -406.66

     ewald   stress (kbar)-104687.73      0.00      0.00
                                0.00-104687.73     -0.00
                                0.00     -0.00-104687.73

     hubbard stress (kbar)      0.00      0.00      0.00
                                0.00      0.00      0.00
                                0.00      0.00      0.00

     DFT-D   stress (kbar)      0.00      0.00      0.00
                                0.00      0.00      0.00
                                0.00      0.00      0.00

     XDM     stress (kbar)      0.00      0.00      0.00
                                0.00      0.00      0.00
                                0.00      0.00      0.00

     dft-nl  stress (kbar)      0.00      0.00      0.00
                                0.00      0.00      0.00
                                0.00      0.00      0.00

     TS-vdW  stress (kbar)      0.00      0.00      0.00
                                0.00      0.00      0.00
                                0.00      0.00      0.00

     MDB     stress (kbar)      0.00      0.00      0.00
                                0.00      0.00      0.00
                                0.00      0.00      0.00

     3D-RISM stress (kbar)      0.00      0.00      0.00
                                0.00      0.00      0.00
                                0.00      0.00      0.00


     Writing all to output data dir ./temp_cubic/aiida.save/ :
     XML data file, charge density, pseudopotentials, collected wavefunctions

     init_run     :     37.14s CPU      1.65s WALL (       1 calls)
     electrons    :   3981.00s CPU    168.21s WALL (       1 calls)
     forces       :     33.19s CPU      1.39s WALL (       1 calls)
     stress       :     15.38s CPU      0.65s WALL (       1 calls)

     Called by init_run:
     wfcinit      :     34.02s CPU      1.43s WALL (       1 calls)
     wfcinit:atom :      0.74s CPU      0.03s WALL (      84 calls)
     wfcinit:wfcr :     32.11s CPU      1.36s WALL (      84 calls)
     potinit      :      1.21s CPU      0.06s WALL (       1 calls)
     hinit0       :      1.22s CPU      0.14s WALL (       1 calls)

     Called by electrons:
     c_bands      :   3677.55s CPU    155.52s WALL (      11 calls)
     sum_band     :    291.38s CPU     12.17s WALL (      11 calls)
     v_of_rho     :      1.68s CPU      0.07s WALL (      12 calls)
     v_h          :      0.68s CPU      0.03s WALL (      12 calls)
     v_xc         :      1.01s CPU      0.05s WALL (      14 calls)
     newd         :      3.00s CPU      0.10s WALL (      12 calls)
     PAW_pot      :      6.71s CPU      0.30s WALL (      12 calls)
     mix_rho      :      0.39s CPU      0.02s WALL (      11 calls)

     Called by c_bands:
     init_us_2    :     27.15s CPU      1.26s WALL (    2100 calls)
     cegterg      :   3559.53s CPU    150.70s WALL (     924 calls)

     Called by sum_band:
     sum_band:wei :      0.23s CPU      0.01s WALL (      11 calls)
     sum_band:loo :    288.59s CPU     12.06s WALL (      11 calls)
     sum_band:buf :      0.46s CPU      0.01s WALL (     924 calls)
     sum_band:ini :      8.58s CPU      0.35s WALL (     924 calls)
     sum_band:cal :      1.87s CPU      0.07s WALL (     924 calls)
     sum_band:bec :     16.27s CPU      0.69s WALL (     924 calls)
     addusdens    :      2.55s CPU      0.09s WALL (      11 calls)
                                        0.00s GPU  (      11 calls)
     addusd:skk   :      0.00s CPU      0.00s WALL (      22 calls)
                                        0.00s GPU  (      22 calls)

     Called by *egterg:
     cdiaghg      :     22.70s CPU      0.84s WALL (    2845 calls)
     cegterg:over :      6.85s CPU      0.26s WALL (    1921 calls)
     cegterg:upda :     51.54s CPU      2.21s WALL (    1921 calls)
     cegterg:last :      6.75s CPU      0.33s WALL (    1769 calls)
     h_psi        :   3311.00s CPU    140.08s WALL (    2929 calls)
     s_psi        :      5.42s CPU      0.22s WALL (    2929 calls)
     g_psi        :     53.58s CPU      2.40s WALL (    1921 calls)

     Called by h_psi:
     h_psi:calbec :      4.33s CPU      0.20s WALL (    2929 calls)
     vloc_psi     :   3220.05s CPU    136.10s WALL (    2929 calls)
     add_vuspsi   :      5.30s CPU      0.22s WALL (    2929 calls)

     General routines
     calbec       :      6.89s CPU      0.30s WALL (    4273 calls)
     fft          :      0.80s CPU      0.01s WALL (     179 calls)
     ffts         :      0.00s CPU      0.00s WALL (      23 calls)
     fftw         :     16.98s CPU      0.79s WALL (   93664 calls)
     interpolate  :      0.00s CPU      0.00s WALL (      12 calls)

     Parallel routines

     PAW routines
     PAW_pot      :      6.71s CPU      0.30s WALL (      12 calls)
     PAW_symme    :      0.00s CPU      0.00s WALL (      23 calls)

     PWSCF        :      1h 8m CPU   2m53.01s WALL


   This run was terminated on:  14:13:39  12Jun2024            

=------------------------------------------------------------------------------=
   JOB DONE.
=------------------------------------------------------------------------------=
