
     Program PWSCF v.7.3.1 starts on  8Jun2024 at 13:40:34 

     This program is part of the open-source Quantum ESPRESSO suite
     for quantum simulation of materials; please cite
         "P. Giannozzi et al., J. Phys.:Condens. Matter 21 395502 (2009);
         "P. Giannozzi et al., J. Phys.:Condens. Matter 29 465901 (2017);
         "P. Giannozzi et al., J. Chem. Phys. 152 154105 (2020);
          URL http://www.quantum-espresso.org", 
     in publications or presentations arising from this work. More details at
     http://www.quantum-espresso.org/quote

     Parallel version (MPI & OpenMP), running on      24 processor cores
     Number of MPI processes:                 1
     Threads/MPI process:                    24

     MPI processes distributed on     1 nodes
     5566 MiB available memory on the printing compute node when the environment starts

     Waiting for input...
     Reading input from standard input

     Current dimensions of program PWSCF are:
     Max number of different atomic species (ntypx) = 10
     Max number of k-points (npk) =  40000
     Max angular momentum in pseudopotentials (lmaxx) =  4
     file O.pbe-n-kjpaw_psl.0.1.UPF: wavefunction(s)  2P renormalized
     Message from routine setup:
     using ibrav=0 with symmetry is DISCOURAGED, use correct ibrav instead

     Subspace diagonalization in iterative solution of the eigenvalue problem:
     a serial algorithm will be used


     G-vector sticks info
     --------------------
     sticks:   dense  smooth     PW     G-vecs:    dense   smooth      PW
     Sum         965     481    149                22335     7881    1419

     Using Slab Decomposition



     bravais-lattice index     =            0
     lattice parameter (alat)  =       5.4938  a.u.
     unit-cell volume          =     165.8148 (a.u.)^3
     number of atoms/cell      =            2
     number of atomic types    =            2
     number of electrons       =        26.00
     number of Kohn-Sham states=           17
     kinetic-energy cutoff     =      50.0000  Ry
     charge density cutoff     =     400.0000  Ry
     scf convergence threshold =      1.0E-08
     mixing beta               =       0.4000
     number of iterations used =            8  plain     mixing
     Exchange-correlation= SLA  PW   PBE  PBE
                           (   1   4   3   4   0   0   0)

     celldm(1)=   5.493820  celldm(2)=   0.000000  celldm(3)=   0.000000
     celldm(4)=   0.000000  celldm(5)=   0.000000  celldm(6)=   0.000000

     crystal axes: (cart. coord. in units of alat)
               a(1) = (   1.000000   0.000000   0.000000 )  
               a(2) = (   0.000000   1.000000   0.000000 )  
               a(3) = (   0.000000   0.000000   1.000000 )  

     reciprocal axes: (cart. coord. in units 2 pi/alat)
               b(1) = (  1.000000  0.000000  0.000000 )  
               b(2) = (  0.000000  1.000000  0.000000 )  
               b(3) = (  0.000000  0.000000  1.000000 )  


     PseudoPot. # 1 for O  read from file:
     ../SSSP_1.3.0_PBE_efficiency/O.pbe-n-kjpaw_psl.0.1.UPF
     MD5 check sum: 0234752ac141de4415c5fc33072bef88
     Pseudo is Projector augmented-wave + core cor, Zval =  6.0
     Generated using "atomic" code by A. Dal Corso  v.5.0.99 svn rev. 10869
     Shape of augmentation charge: BESSEL
     Using radial grid of 1095 points,  4 beta functions with: 
                l(1) =   0
                l(2) =   0
                l(3) =   1
                l(4) =   1
     Q(r) pseudized with 0 coefficients 


     PseudoPot. # 2 for Zn read from file:
     ../SSSP_1.3.0_PBE_efficiency/Zn_pbe_v1.uspp.F.UPF
     MD5 check sum: df62231357ef9e81f77b2b3087fa5675
     Pseudo is Ultrasoft, Zval = 20.0
     Generated by new atomic code, or converted to UPF format
     Using radial grid of  943 points,  6 beta functions with: 
                l(1) =   0
                l(2) =   0
                l(3) =   1
                l(4) =   1
                l(5) =   2
                l(6) =   2
     Q(r) pseudized with  8 coefficients,  rinner =    1.100   1.100   1.100
                                                       1.100   1.100

     atomic species   valence    mass     pseudopotential
     O                 6.00    15.99940     O ( 1.00)
     Zn               20.00    65.38000     Zn( 1.00)

     48 Sym. Ops., with inversion, found


                                    s                        frac. trans.

      isym =  1     identity                                     

 cryst.   s( 1) = (     1          0          0      )
                  (     0          1          0      )
                  (     0          0          1      )

 cart.    s( 1) = (  1.0000000  0.0000000  0.0000000 )
                  (  0.0000000  1.0000000  0.0000000 )
                  (  0.0000000  0.0000000  1.0000000 )


      isym =  2     180 deg rotation - cart. axis [0,0,1]        

 cryst.   s( 2) = (    -1          0          0      )
                  (     0         -1          0      )
                  (     0          0          1      )

 cart.    s( 2) = ( -1.0000000  0.0000000  0.0000000 )
                  (  0.0000000 -1.0000000  0.0000000 )
                  (  0.0000000  0.0000000  1.0000000 )


      isym =  3     180 deg rotation - cart. axis [0,1,0]        

 cryst.   s( 3) = (    -1          0          0      )
                  (     0          1          0      )
                  (     0          0         -1      )

 cart.    s( 3) = ( -1.0000000  0.0000000  0.0000000 )
                  (  0.0000000  1.0000000  0.0000000 )
                  (  0.0000000  0.0000000 -1.0000000 )


      isym =  4     180 deg rotation - cart. axis [1,0,0]        

 cryst.   s( 4) = (     1          0          0      )
                  (     0         -1          0      )
                  (     0          0         -1      )

 cart.    s( 4) = (  1.0000000  0.0000000  0.0000000 )
                  (  0.0000000 -1.0000000  0.0000000 )
                  (  0.0000000  0.0000000 -1.0000000 )


      isym =  5     180 deg rotation - cart. axis [1,1,0]        

 cryst.   s( 5) = (     0          1          0      )
                  (     1          0          0      )
                  (     0          0         -1      )

 cart.    s( 5) = (  0.0000000  1.0000000  0.0000000 )
                  (  1.0000000  0.0000000  0.0000000 )
                  (  0.0000000  0.0000000 -1.0000000 )


      isym =  6     180 deg rotation - cart. axis [1,-1,0]       

 cryst.   s( 6) = (     0         -1          0      )
                  (    -1          0          0      )
                  (     0          0         -1      )

 cart.    s( 6) = (  0.0000000 -1.0000000  0.0000000 )
                  ( -1.0000000  0.0000000  0.0000000 )
                  (  0.0000000  0.0000000 -1.0000000 )


      isym =  7      90 deg rotation - cart. axis [0,0,-1]       

 cryst.   s( 7) = (     0         -1          0      )
                  (     1          0          0      )
                  (     0          0          1      )

 cart.    s( 7) = (  0.0000000  1.0000000  0.0000000 )
                  ( -1.0000000  0.0000000  0.0000000 )
                  (  0.0000000  0.0000000  1.0000000 )


      isym =  8      90 deg rotation - cart. axis [0,0,1]        

 cryst.   s( 8) = (     0          1          0      )
                  (    -1          0          0      )
                  (     0          0          1      )

 cart.    s( 8) = (  0.0000000 -1.0000000  0.0000000 )
                  (  1.0000000  0.0000000  0.0000000 )
                  (  0.0000000  0.0000000  1.0000000 )


      isym =  9     180 deg rotation - cart. axis [1,0,1]        

 cryst.   s( 9) = (     0          0          1      )
                  (     0         -1          0      )
                  (     1          0          0      )

 cart.    s( 9) = (  0.0000000  0.0000000  1.0000000 )
                  (  0.0000000 -1.0000000  0.0000000 )
                  (  1.0000000  0.0000000  0.0000000 )


      isym = 10     180 deg rotation - cart. axis [-1,0,1]       

 cryst.   s(10) = (     0          0         -1      )
                  (     0         -1          0      )
                  (    -1          0          0      )

 cart.    s(10) = (  0.0000000  0.0000000 -1.0000000 )
                  (  0.0000000 -1.0000000  0.0000000 )
                  ( -1.0000000  0.0000000  0.0000000 )


      isym = 11      90 deg rotation - cart. axis [0,1,0]        

 cryst.   s(11) = (     0          0         -1      )
                  (     0          1          0      )
                  (     1          0          0      )

 cart.    s(11) = (  0.0000000  0.0000000  1.0000000 )
                  (  0.0000000  1.0000000  0.0000000 )
                  ( -1.0000000  0.0000000  0.0000000 )


      isym = 12      90 deg rotation - cart. axis [0,-1,0]       

 cryst.   s(12) = (     0          0          1      )
                  (     0          1          0      )
                  (    -1          0          0      )

 cart.    s(12) = (  0.0000000  0.0000000 -1.0000000 )
                  (  0.0000000  1.0000000  0.0000000 )
                  (  1.0000000  0.0000000  0.0000000 )


      isym = 13     180 deg rotation - cart. axis [0,1,1]        

 cryst.   s(13) = (    -1          0          0      )
                  (     0          0          1      )
                  (     0          1          0      )

 cart.    s(13) = ( -1.0000000  0.0000000  0.0000000 )
                  (  0.0000000  0.0000000  1.0000000 )
                  (  0.0000000  1.0000000  0.0000000 )


      isym = 14     180 deg rotation - cart. axis [0,1,-1]       

 cryst.   s(14) = (    -1          0          0      )
                  (     0          0         -1      )
                  (     0         -1          0      )

 cart.    s(14) = ( -1.0000000  0.0000000  0.0000000 )
                  (  0.0000000  0.0000000 -1.0000000 )
                  (  0.0000000 -1.0000000  0.0000000 )


      isym = 15      90 deg rotation - cart. axis [-1,0,0]       

 cryst.   s(15) = (     1          0          0      )
                  (     0          0         -1      )
                  (     0          1          0      )

 cart.    s(15) = (  1.0000000  0.0000000  0.0000000 )
                  (  0.0000000  0.0000000  1.0000000 )
                  (  0.0000000 -1.0000000  0.0000000 )


      isym = 16      90 deg rotation - cart. axis [1,0,0]        

 cryst.   s(16) = (     1          0          0      )
                  (     0          0          1      )
                  (     0         -1          0      )

 cart.    s(16) = (  1.0000000  0.0000000  0.0000000 )
                  (  0.0000000  0.0000000 -1.0000000 )
                  (  0.0000000  1.0000000  0.0000000 )


      isym = 17     120 deg rotation - cart. axis [-1,-1,-1]     

 cryst.   s(17) = (     0          0          1      )
                  (     1          0          0      )
                  (     0          1          0      )

 cart.    s(17) = (  0.0000000  1.0000000  0.0000000 )
                  (  0.0000000  0.0000000  1.0000000 )
                  (  1.0000000  0.0000000  0.0000000 )


      isym = 18     120 deg rotation - cart. axis [-1,1,1]       

 cryst.   s(18) = (     0          0         -1      )
                  (    -1          0          0      )
                  (     0          1          0      )

 cart.    s(18) = (  0.0000000 -1.0000000  0.0000000 )
                  (  0.0000000  0.0000000  1.0000000 )
                  ( -1.0000000  0.0000000  0.0000000 )


      isym = 19     120 deg rotation - cart. axis [1,1,-1]       

 cryst.   s(19) = (     0          0         -1      )
                  (     1          0          0      )
                  (     0         -1          0      )

 cart.    s(19) = (  0.0000000  1.0000000  0.0000000 )
                  (  0.0000000  0.0000000 -1.0000000 )
                  ( -1.0000000  0.0000000  0.0000000 )


      isym = 20     120 deg rotation - cart. axis [1,-1,1]       

 cryst.   s(20) = (     0          0          1      )
                  (    -1          0          0      )
                  (     0         -1          0      )

 cart.    s(20) = (  0.0000000 -1.0000000  0.0000000 )
                  (  0.0000000  0.0000000 -1.0000000 )
                  (  1.0000000  0.0000000  0.0000000 )


      isym = 21     120 deg rotation - cart. axis [1,1,1]        

 cryst.   s(21) = (     0          1          0      )
                  (     0          0          1      )
                  (     1          0          0      )

 cart.    s(21) = (  0.0000000  0.0000000  1.0000000 )
                  (  1.0000000  0.0000000  0.0000000 )
                  (  0.0000000  1.0000000  0.0000000 )


      isym = 22     120 deg rotation - cart. axis [-1,1,-1]      

 cryst.   s(22) = (     0         -1          0      )
                  (     0          0         -1      )
                  (     1          0          0      )

 cart.    s(22) = (  0.0000000  0.0000000  1.0000000 )
                  ( -1.0000000  0.0000000  0.0000000 )
                  (  0.0000000 -1.0000000  0.0000000 )


      isym = 23     120 deg rotation - cart. axis [1,-1,-1]      

 cryst.   s(23) = (     0         -1          0      )
                  (     0          0          1      )
                  (    -1          0          0      )

 cart.    s(23) = (  0.0000000  0.0000000 -1.0000000 )
                  ( -1.0000000  0.0000000  0.0000000 )
                  (  0.0000000  1.0000000  0.0000000 )


      isym = 24     120 deg rotation - cart. axis [-1,-1,1]      

 cryst.   s(24) = (     0          1          0      )
                  (     0          0         -1      )
                  (    -1          0          0      )

 cart.    s(24) = (  0.0000000  0.0000000 -1.0000000 )
                  (  1.0000000  0.0000000  0.0000000 )
                  (  0.0000000 -1.0000000  0.0000000 )


      isym = 25     inversion                                    

 cryst.   s(25) = (    -1          0          0      )
                  (     0         -1          0      )
                  (     0          0         -1      )

 cart.    s(25) = ( -1.0000000  0.0000000  0.0000000 )
                  (  0.0000000 -1.0000000  0.0000000 )
                  (  0.0000000  0.0000000 -1.0000000 )


      isym = 26     inv. 180 deg rotation - cart. axis [0,0,1]   

 cryst.   s(26) = (     1          0          0      )
                  (     0          1          0      )
                  (     0          0         -1      )

 cart.    s(26) = (  1.0000000  0.0000000  0.0000000 )
                  (  0.0000000  1.0000000  0.0000000 )
                  (  0.0000000  0.0000000 -1.0000000 )


      isym = 27     inv. 180 deg rotation - cart. axis [0,1,0]   

 cryst.   s(27) = (     1          0          0      )
                  (     0         -1          0      )
                  (     0          0          1      )

 cart.    s(27) = (  1.0000000  0.0000000  0.0000000 )
                  (  0.0000000 -1.0000000  0.0000000 )
                  (  0.0000000  0.0000000  1.0000000 )


      isym = 28     inv. 180 deg rotation - cart. axis [1,0,0]   

 cryst.   s(28) = (    -1          0          0      )
                  (     0          1          0      )
                  (     0          0          1      )

 cart.    s(28) = ( -1.0000000  0.0000000  0.0000000 )
                  (  0.0000000  1.0000000  0.0000000 )
                  (  0.0000000  0.0000000  1.0000000 )


      isym = 29     inv. 180 deg rotation - cart. axis [1,1,0]   

 cryst.   s(29) = (     0         -1          0      )
                  (    -1          0          0      )
                  (     0          0          1      )

 cart.    s(29) = (  0.0000000 -1.0000000  0.0000000 )
                  ( -1.0000000  0.0000000  0.0000000 )
                  (  0.0000000  0.0000000  1.0000000 )


      isym = 30     inv. 180 deg rotation - cart. axis [1,-1,0]  

 cryst.   s(30) = (     0          1          0      )
                  (     1          0          0      )
                  (     0          0          1      )

 cart.    s(30) = (  0.0000000  1.0000000  0.0000000 )
                  (  1.0000000  0.0000000  0.0000000 )
                  (  0.0000000  0.0000000  1.0000000 )


      isym = 31     inv.  90 deg rotation - cart. axis [0,0,-1]  

 cryst.   s(31) = (     0          1          0      )
                  (    -1          0          0      )
                  (     0          0         -1      )

 cart.    s(31) = (  0.0000000 -1.0000000  0.0000000 )
                  (  1.0000000  0.0000000  0.0000000 )
                  (  0.0000000  0.0000000 -1.0000000 )


      isym = 32     inv.  90 deg rotation - cart. axis [0,0,1]   

 cryst.   s(32) = (     0         -1          0      )
                  (     1          0          0      )
                  (     0          0         -1      )

 cart.    s(32) = (  0.0000000  1.0000000  0.0000000 )
                  ( -1.0000000  0.0000000  0.0000000 )
                  (  0.0000000  0.0000000 -1.0000000 )


      isym = 33     inv. 180 deg rotation - cart. axis [1,0,1]   

 cryst.   s(33) = (     0          0         -1      )
                  (     0          1          0      )
                  (    -1          0          0      )

 cart.    s(33) = (  0.0000000  0.0000000 -1.0000000 )
                  (  0.0000000  1.0000000  0.0000000 )
                  ( -1.0000000  0.0000000  0.0000000 )


      isym = 34     inv. 180 deg rotation - cart. axis [-1,0,1]  

 cryst.   s(34) = (     0          0          1      )
                  (     0          1          0      )
                  (     1          0          0      )

 cart.    s(34) = (  0.0000000  0.0000000  1.0000000 )
                  (  0.0000000  1.0000000  0.0000000 )
                  (  1.0000000  0.0000000  0.0000000 )


      isym = 35     inv.  90 deg rotation - cart. axis [0,1,0]   

 cryst.   s(35) = (     0          0          1      )
                  (     0         -1          0      )
                  (    -1          0          0      )

 cart.    s(35) = (  0.0000000  0.0000000 -1.0000000 )
                  (  0.0000000 -1.0000000  0.0000000 )
                  (  1.0000000  0.0000000  0.0000000 )


      isym = 36     inv.  90 deg rotation - cart. axis [0,-1,0]  

 cryst.   s(36) = (     0          0         -1      )
                  (     0         -1          0      )
                  (     1          0          0      )

 cart.    s(36) = (  0.0000000  0.0000000  1.0000000 )
                  (  0.0000000 -1.0000000  0.0000000 )
                  ( -1.0000000  0.0000000  0.0000000 )


      isym = 37     inv. 180 deg rotation - cart. axis [0,1,1]   

 cryst.   s(37) = (     1          0          0      )
                  (     0          0         -1      )
                  (     0         -1          0      )

 cart.    s(37) = (  1.0000000  0.0000000  0.0000000 )
                  (  0.0000000  0.0000000 -1.0000000 )
                  (  0.0000000 -1.0000000  0.0000000 )


      isym = 38     inv. 180 deg rotation - cart. axis [0,1,-1]  

 cryst.   s(38) = (     1          0          0      )
                  (     0          0          1      )
                  (     0          1          0      )

 cart.    s(38) = (  1.0000000  0.0000000  0.0000000 )
                  (  0.0000000  0.0000000  1.0000000 )
                  (  0.0000000  1.0000000  0.0000000 )


      isym = 39     inv.  90 deg rotation - cart. axis [-1,0,0]  

 cryst.   s(39) = (    -1          0          0      )
                  (     0          0          1      )
                  (     0         -1          0      )

 cart.    s(39) = ( -1.0000000  0.0000000  0.0000000 )
                  (  0.0000000  0.0000000 -1.0000000 )
                  (  0.0000000  1.0000000  0.0000000 )


      isym = 40     inv.  90 deg rotation - cart. axis [1,0,0]   

 cryst.   s(40) = (    -1          0          0      )
                  (     0          0         -1      )
                  (     0          1          0      )

 cart.    s(40) = ( -1.0000000  0.0000000  0.0000000 )
                  (  0.0000000  0.0000000  1.0000000 )
                  (  0.0000000 -1.0000000  0.0000000 )


      isym = 41     inv. 120 deg rotation - cart. axis [-1,-1,-1]

 cryst.   s(41) = (     0          0         -1      )
                  (    -1          0          0      )
                  (     0         -1          0      )

 cart.    s(41) = (  0.0000000 -1.0000000  0.0000000 )
                  (  0.0000000  0.0000000 -1.0000000 )
                  ( -1.0000000  0.0000000  0.0000000 )


      isym = 42     inv. 120 deg rotation - cart. axis [-1,1,1]  

 cryst.   s(42) = (     0          0          1      )
                  (     1          0          0      )
                  (     0         -1          0      )

 cart.    s(42) = (  0.0000000  1.0000000  0.0000000 )
                  (  0.0000000  0.0000000 -1.0000000 )
                  (  1.0000000  0.0000000  0.0000000 )


      isym = 43     inv. 120 deg rotation - cart. axis [1,1,-1]  

 cryst.   s(43) = (     0          0          1      )
                  (    -1          0          0      )
                  (     0          1          0      )

 cart.    s(43) = (  0.0000000 -1.0000000  0.0000000 )
                  (  0.0000000  0.0000000  1.0000000 )
                  (  1.0000000  0.0000000  0.0000000 )


      isym = 44     inv. 120 deg rotation - cart. axis [1,-1,1]  

 cryst.   s(44) = (     0          0         -1      )
                  (     1          0          0      )
                  (     0          1          0      )

 cart.    s(44) = (  0.0000000  1.0000000  0.0000000 )
                  (  0.0000000  0.0000000  1.0000000 )
                  ( -1.0000000  0.0000000  0.0000000 )


      isym = 45     inv. 120 deg rotation - cart. axis [1,1,1]   

 cryst.   s(45) = (     0         -1          0      )
                  (     0          0         -1      )
                  (    -1          0          0      )

 cart.    s(45) = (  0.0000000  0.0000000 -1.0000000 )
                  ( -1.0000000  0.0000000  0.0000000 )
                  (  0.0000000 -1.0000000  0.0000000 )


      isym = 46     inv. 120 deg rotation - cart. axis [-1,1,-1] 

 cryst.   s(46) = (     0          1          0      )
                  (     0          0          1      )
                  (    -1          0          0      )

 cart.    s(46) = (  0.0000000  0.0000000 -1.0000000 )
                  (  1.0000000  0.0000000  0.0000000 )
                  (  0.0000000  1.0000000  0.0000000 )


      isym = 47     inv. 120 deg rotation - cart. axis [1,-1,-1] 

 cryst.   s(47) = (     0          1          0      )
                  (     0          0         -1      )
                  (     1          0          0      )

 cart.    s(47) = (  0.0000000  0.0000000  1.0000000 )
                  (  1.0000000  0.0000000  0.0000000 )
                  (  0.0000000 -1.0000000  0.0000000 )


      isym = 48     inv. 120 deg rotation - cart. axis [-1,-1,1] 

 cryst.   s(48) = (     0         -1          0      )
                  (     0          0          1      )
                  (     1          0          0      )

 cart.    s(48) = (  0.0000000  0.0000000  1.0000000 )
                  ( -1.0000000  0.0000000  0.0000000 )
                  (  0.0000000  1.0000000  0.0000000 )


   Cartesian axes

     site n.     atom                  positions (alat units)
         1        Zn     tau(   1) = (   0.0000000   0.0000000   0.0000000  )
         2        O      tau(   2) = (   0.5000000   0.5000000   0.5000000  )

   Crystallographic axes

     site n.     atom                  positions (cryst. coord.)
         1        Zn     tau(   1) = (  0.0000000  0.0000000  0.0000000  )
         2        O      tau(   2) = (  0.5000000  0.5000000  0.5000000  )

     number of k points=    84  Marzari-Vanderbilt smearing, width (Ry)=  0.0147
                       cart. coord. in units 2pi/alat
        k(    1) = (   0.0000000   0.0000000   0.0000000), wk =   0.0011574
        k(    2) = (   0.0000000   0.0000000   0.0833333), wk =   0.0069444
        k(    3) = (   0.0000000   0.0000000   0.1666667), wk =   0.0069444
        k(    4) = (   0.0000000   0.0000000   0.2500000), wk =   0.0069444
        k(    5) = (   0.0000000   0.0000000   0.3333333), wk =   0.0069444
        k(    6) = (   0.0000000   0.0000000   0.4166667), wk =   0.0069444
        k(    7) = (   0.0000000   0.0000000  -0.5000000), wk =   0.0034722
        k(    8) = (   0.0000000   0.0833333   0.0833333), wk =   0.0138889
        k(    9) = (   0.0000000   0.0833333   0.1666667), wk =   0.0277778
        k(   10) = (   0.0000000   0.0833333   0.2500000), wk =   0.0277778
        k(   11) = (   0.0000000   0.0833333   0.3333333), wk =   0.0277778
        k(   12) = (   0.0000000   0.0833333   0.4166667), wk =   0.0277778
        k(   13) = (   0.0000000   0.0833333  -0.5000000), wk =   0.0138889
        k(   14) = (   0.0000000   0.1666667   0.1666667), wk =   0.0138889
        k(   15) = (   0.0000000   0.1666667   0.2500000), wk =   0.0277778
        k(   16) = (   0.0000000   0.1666667   0.3333333), wk =   0.0277778
        k(   17) = (   0.0000000   0.1666667   0.4166667), wk =   0.0277778
        k(   18) = (   0.0000000   0.1666667  -0.5000000), wk =   0.0138889
        k(   19) = (   0.0000000   0.2500000   0.2500000), wk =   0.0138889
        k(   20) = (   0.0000000   0.2500000   0.3333333), wk =   0.0277778
        k(   21) = (   0.0000000   0.2500000   0.4166667), wk =   0.0277778
        k(   22) = (   0.0000000   0.2500000  -0.5000000), wk =   0.0138889
        k(   23) = (   0.0000000   0.3333333   0.3333333), wk =   0.0138889
        k(   24) = (   0.0000000   0.3333333   0.4166667), wk =   0.0277778
        k(   25) = (   0.0000000   0.3333333  -0.5000000), wk =   0.0138889
        k(   26) = (   0.0000000   0.4166667   0.4166667), wk =   0.0138889
        k(   27) = (   0.0000000   0.4166667  -0.5000000), wk =   0.0138889
        k(   28) = (   0.0000000  -0.5000000  -0.5000000), wk =   0.0034722
        k(   29) = (   0.0833333   0.0833333   0.0833333), wk =   0.0092593
        k(   30) = (   0.0833333   0.0833333   0.1666667), wk =   0.0277778
        k(   31) = (   0.0833333   0.0833333   0.2500000), wk =   0.0277778
        k(   32) = (   0.0833333   0.0833333   0.3333333), wk =   0.0277778
        k(   33) = (   0.0833333   0.0833333   0.4166667), wk =   0.0277778
        k(   34) = (   0.0833333   0.0833333  -0.5000000), wk =   0.0138889
        k(   35) = (   0.0833333   0.1666667   0.1666667), wk =   0.0277778
        k(   36) = (   0.0833333   0.1666667   0.2500000), wk =   0.0555556
        k(   37) = (   0.0833333   0.1666667   0.3333333), wk =   0.0555556
        k(   38) = (   0.0833333   0.1666667   0.4166667), wk =   0.0555556
        k(   39) = (   0.0833333   0.1666667  -0.5000000), wk =   0.0277778
        k(   40) = (   0.0833333   0.2500000   0.2500000), wk =   0.0277778
        k(   41) = (   0.0833333   0.2500000   0.3333333), wk =   0.0555556
        k(   42) = (   0.0833333   0.2500000   0.4166667), wk =   0.0555556
        k(   43) = (   0.0833333   0.2500000  -0.5000000), wk =   0.0277778
        k(   44) = (   0.0833333   0.3333333   0.3333333), wk =   0.0277778
        k(   45) = (   0.0833333   0.3333333   0.4166667), wk =   0.0555556
        k(   46) = (   0.0833333   0.3333333  -0.5000000), wk =   0.0277778
        k(   47) = (   0.0833333   0.4166667   0.4166667), wk =   0.0277778
        k(   48) = (   0.0833333   0.4166667  -0.5000000), wk =   0.0277778
        k(   49) = (   0.0833333  -0.5000000  -0.5000000), wk =   0.0069444
        k(   50) = (   0.1666667   0.1666667   0.1666667), wk =   0.0092593
        k(   51) = (   0.1666667   0.1666667   0.2500000), wk =   0.0277778
        k(   52) = (   0.1666667   0.1666667   0.3333333), wk =   0.0277778
        k(   53) = (   0.1666667   0.1666667   0.4166667), wk =   0.0277778
        k(   54) = (   0.1666667   0.1666667  -0.5000000), wk =   0.0138889
        k(   55) = (   0.1666667   0.2500000   0.2500000), wk =   0.0277778
        k(   56) = (   0.1666667   0.2500000   0.3333333), wk =   0.0555556
        k(   57) = (   0.1666667   0.2500000   0.4166667), wk =   0.0555556
        k(   58) = (   0.1666667   0.2500000  -0.5000000), wk =   0.0277778
        k(   59) = (   0.1666667   0.3333333   0.3333333), wk =   0.0277778
        k(   60) = (   0.1666667   0.3333333   0.4166667), wk =   0.0555556
        k(   61) = (   0.1666667   0.3333333  -0.5000000), wk =   0.0277778
        k(   62) = (   0.1666667   0.4166667   0.4166667), wk =   0.0277778
        k(   63) = (   0.1666667   0.4166667  -0.5000000), wk =   0.0277778
        k(   64) = (   0.1666667  -0.5000000  -0.5000000), wk =   0.0069444
        k(   65) = (   0.2500000   0.2500000   0.2500000), wk =   0.0092593
        k(   66) = (   0.2500000   0.2500000   0.3333333), wk =   0.0277778
        k(   67) = (   0.2500000   0.2500000   0.4166667), wk =   0.0277778
        k(   68) = (   0.2500000   0.2500000  -0.5000000), wk =   0.0138889
        k(   69) = (   0.2500000   0.3333333   0.3333333), wk =   0.0277778
        k(   70) = (   0.2500000   0.3333333   0.4166667), wk =   0.0555556
        k(   71) = (   0.2500000   0.3333333  -0.5000000), wk =   0.0277778
        k(   72) = (   0.2500000   0.4166667   0.4166667), wk =   0.0277778
        k(   73) = (   0.2500000   0.4166667  -0.5000000), wk =   0.0277778
        k(   74) = (   0.2500000  -0.5000000  -0.5000000), wk =   0.0069444
        k(   75) = (   0.3333333   0.3333333   0.3333333), wk =   0.0092593
        k(   76) = (   0.3333333   0.3333333   0.4166667), wk =   0.0277778
        k(   77) = (   0.3333333   0.3333333  -0.5000000), wk =   0.0138889
        k(   78) = (   0.3333333   0.4166667   0.4166667), wk =   0.0277778
        k(   79) = (   0.3333333   0.4166667  -0.5000000), wk =   0.0277778
        k(   80) = (   0.3333333  -0.5000000  -0.5000000), wk =   0.0069444
        k(   81) = (   0.4166667   0.4166667   0.4166667), wk =   0.0092593
        k(   82) = (   0.4166667   0.4166667  -0.5000000), wk =   0.0138889
        k(   83) = (   0.4166667  -0.5000000  -0.5000000), wk =   0.0069444
        k(   84) = (  -0.5000000  -0.5000000  -0.5000000), wk =   0.0011574

                       cryst. coord.
        k(    1) = (   0.0000000   0.0000000   0.0000000), wk =   0.0011574
        k(    2) = (   0.0000000   0.0000000   0.0833333), wk =   0.0069444
        k(    3) = (   0.0000000   0.0000000   0.1666667), wk =   0.0069444
        k(    4) = (   0.0000000   0.0000000   0.2500000), wk =   0.0069444
        k(    5) = (   0.0000000   0.0000000   0.3333333), wk =   0.0069444
        k(    6) = (   0.0000000   0.0000000   0.4166667), wk =   0.0069444
        k(    7) = (   0.0000000   0.0000000  -0.5000000), wk =   0.0034722
        k(    8) = (   0.0000000   0.0833333   0.0833333), wk =   0.0138889
        k(    9) = (   0.0000000   0.0833333   0.1666667), wk =   0.0277778
        k(   10) = (   0.0000000   0.0833333   0.2500000), wk =   0.0277778
        k(   11) = (   0.0000000   0.0833333   0.3333333), wk =   0.0277778
        k(   12) = (   0.0000000   0.0833333   0.4166667), wk =   0.0277778
        k(   13) = (   0.0000000   0.0833333  -0.5000000), wk =   0.0138889
        k(   14) = (   0.0000000   0.1666667   0.1666667), wk =   0.0138889
        k(   15) = (   0.0000000   0.1666667   0.2500000), wk =   0.0277778
        k(   16) = (   0.0000000   0.1666667   0.3333333), wk =   0.0277778
        k(   17) = (   0.0000000   0.1666667   0.4166667), wk =   0.0277778
        k(   18) = (   0.0000000   0.1666667  -0.5000000), wk =   0.0138889
        k(   19) = (   0.0000000   0.2500000   0.2500000), wk =   0.0138889
        k(   20) = (   0.0000000   0.2500000   0.3333333), wk =   0.0277778
        k(   21) = (   0.0000000   0.2500000   0.4166667), wk =   0.0277778
        k(   22) = (   0.0000000   0.2500000  -0.5000000), wk =   0.0138889
        k(   23) = (   0.0000000   0.3333333   0.3333333), wk =   0.0138889
        k(   24) = (   0.0000000   0.3333333   0.4166667), wk =   0.0277778
        k(   25) = (   0.0000000   0.3333333  -0.5000000), wk =   0.0138889
        k(   26) = (   0.0000000   0.4166667   0.4166667), wk =   0.0138889
        k(   27) = (   0.0000000   0.4166667  -0.5000000), wk =   0.0138889
        k(   28) = (   0.0000000  -0.5000000  -0.5000000), wk =   0.0034722
        k(   29) = (   0.0833333   0.0833333   0.0833333), wk =   0.0092593
        k(   30) = (   0.0833333   0.0833333   0.1666667), wk =   0.0277778
        k(   31) = (   0.0833333   0.0833333   0.2500000), wk =   0.0277778
        k(   32) = (   0.0833333   0.0833333   0.3333333), wk =   0.0277778
        k(   33) = (   0.0833333   0.0833333   0.4166667), wk =   0.0277778
        k(   34) = (   0.0833333   0.0833333  -0.5000000), wk =   0.0138889
        k(   35) = (   0.0833333   0.1666667   0.1666667), wk =   0.0277778
        k(   36) = (   0.0833333   0.1666667   0.2500000), wk =   0.0555556
        k(   37) = (   0.0833333   0.1666667   0.3333333), wk =   0.0555556
        k(   38) = (   0.0833333   0.1666667   0.4166667), wk =   0.0555556
        k(   39) = (   0.0833333   0.1666667  -0.5000000), wk =   0.0277778
        k(   40) = (   0.0833333   0.2500000   0.2500000), wk =   0.0277778
        k(   41) = (   0.0833333   0.2500000   0.3333333), wk =   0.0555556
        k(   42) = (   0.0833333   0.2500000   0.4166667), wk =   0.0555556
        k(   43) = (   0.0833333   0.2500000  -0.5000000), wk =   0.0277778
        k(   44) = (   0.0833333   0.3333333   0.3333333), wk =   0.0277778
        k(   45) = (   0.0833333   0.3333333   0.4166667), wk =   0.0555556
        k(   46) = (   0.0833333   0.3333333  -0.5000000), wk =   0.0277778
        k(   47) = (   0.0833333   0.4166667   0.4166667), wk =   0.0277778
        k(   48) = (   0.0833333   0.4166667  -0.5000000), wk =   0.0277778
        k(   49) = (   0.0833333  -0.5000000  -0.5000000), wk =   0.0069444
        k(   50) = (   0.1666667   0.1666667   0.1666667), wk =   0.0092593
        k(   51) = (   0.1666667   0.1666667   0.2500000), wk =   0.0277778
        k(   52) = (   0.1666667   0.1666667   0.3333333), wk =   0.0277778
        k(   53) = (   0.1666667   0.1666667   0.4166667), wk =   0.0277778
        k(   54) = (   0.1666667   0.1666667  -0.5000000), wk =   0.0138889
        k(   55) = (   0.1666667   0.2500000   0.2500000), wk =   0.0277778
        k(   56) = (   0.1666667   0.2500000   0.3333333), wk =   0.0555556
        k(   57) = (   0.1666667   0.2500000   0.4166667), wk =   0.0555556
        k(   58) = (   0.1666667   0.2500000  -0.5000000), wk =   0.0277778
        k(   59) = (   0.1666667   0.3333333   0.3333333), wk =   0.0277778
        k(   60) = (   0.1666667   0.3333333   0.4166667), wk =   0.0555556
        k(   61) = (   0.1666667   0.3333333  -0.5000000), wk =   0.0277778
        k(   62) = (   0.1666667   0.4166667   0.4166667), wk =   0.0277778
        k(   63) = (   0.1666667   0.4166667  -0.5000000), wk =   0.0277778
        k(   64) = (   0.1666667  -0.5000000  -0.5000000), wk =   0.0069444
        k(   65) = (   0.2500000   0.2500000   0.2500000), wk =   0.0092593
        k(   66) = (   0.2500000   0.2500000   0.3333333), wk =   0.0277778
        k(   67) = (   0.2500000   0.2500000   0.4166667), wk =   0.0277778
        k(   68) = (   0.2500000   0.2500000  -0.5000000), wk =   0.0138889
        k(   69) = (   0.2500000   0.3333333   0.3333333), wk =   0.0277778
        k(   70) = (   0.2500000   0.3333333   0.4166667), wk =   0.0555556
        k(   71) = (   0.2500000   0.3333333  -0.5000000), wk =   0.0277778
        k(   72) = (   0.2500000   0.4166667   0.4166667), wk =   0.0277778
        k(   73) = (   0.2500000   0.4166667  -0.5000000), wk =   0.0277778
        k(   74) = (   0.2500000  -0.5000000  -0.5000000), wk =   0.0069444
        k(   75) = (   0.3333333   0.3333333   0.3333333), wk =   0.0092593
        k(   76) = (   0.3333333   0.3333333   0.4166667), wk =   0.0277778
        k(   77) = (   0.3333333   0.3333333  -0.5000000), wk =   0.0138889
        k(   78) = (   0.3333333   0.4166667   0.4166667), wk =   0.0277778
        k(   79) = (   0.3333333   0.4166667  -0.5000000), wk =   0.0277778
        k(   80) = (   0.3333333  -0.5000000  -0.5000000), wk =   0.0069444
        k(   81) = (   0.4166667   0.4166667   0.4166667), wk =   0.0092593
        k(   82) = (   0.4166667   0.4166667  -0.5000000), wk =   0.0138889
        k(   83) = (   0.4166667  -0.5000000  -0.5000000), wk =   0.0069444
        k(   84) = (  -0.5000000  -0.5000000  -0.5000000), wk =   0.0011574

     Dense  grid:    22335 G-vectors     FFT dimensions: (  36,  36,  36)

     Smooth grid:     7881 G-vectors     FFT dimensions: (  25,  25,  25)

     Dynamical RAM for                 wfc:       0.26 MB

     Dynamical RAM for     wfc (w. buffer):      21.83 MB

     Dynamical RAM for           str. fact:       0.68 MB

     Dynamical RAM for           local pot:       0.00 MB

     Dynamical RAM for          nlocal pot:       0.39 MB

     Dynamical RAM for                qrad:       3.21 MB

     Dynamical RAM for          rho,v,vnew:       2.09 MB

     Dynamical RAM for               rhoin:       0.70 MB

     Dynamical RAM for            rho*nmix:       5.45 MB

     Dynamical RAM for           G-vectors:       1.34 MB

     Dynamical RAM for          h,s,v(r/c):       0.05 MB

     Dynamical RAM for          <psi|beta>:       0.01 MB

     Dynamical RAM for                 psi:       0.51 MB

     Dynamical RAM for                hpsi:       0.51 MB

     Dynamical RAM for                spsi:       0.51 MB

     Dynamical RAM for      wfcinit/wfcrot:       0.52 MB

     Dynamical RAM for           addusdens:      63.73 MB

     Dynamical RAM for          addusforce:      63.90 MB

     Dynamical RAM for         addusstress:      68.50 MB

     Estimated static dynamical RAM per process >      33.04 MB

     Estimated max dynamical RAM per process >     107.00 MB

     Check: negative core charge=   -0.000003

     Initial potential from superposition of free atoms

     starting charge      25.9999, renormalised to      26.0000
     Starting wfcs are   17 randomized atomic wfcs
     Checking if some PAW data can be deallocated... 

     total cpu time spent up to now is       20.8 secs

     Self-consistent Calculation

     iteration #  1     ecut=    50.00 Ry     beta= 0.40
     Davidson diagonalization with overlap

---- Real-time Memory Report at c_bands before calling an iterative solver
           108 MiB given to the printing process from OS
             0 MiB allocation reported by mallinfo(arena+hblkhd)
          5345 MiB available memory on the node where the printing process lives
------------------
     ethr =  1.00E-02,  avg # of iterations =  2.5

     total cpu time spent up to now is       26.6 secs

     WARNING: integrated charge=    26.00035512, expected=    26.00000000

     total energy              =    -502.96297524 Ry
     estimated scf accuracy    <       0.57072999 Ry

     iteration #  2     ecut=    50.00 Ry     beta= 0.40
     Davidson diagonalization with overlap

---- Real-time Memory Report at c_bands before calling an iterative solver
           146 MiB given to the printing process from OS
             0 MiB allocation reported by mallinfo(arena+hblkhd)
          5345 MiB available memory on the node where the printing process lives
------------------
     ethr =  2.20E-03,  avg # of iterations =  2.0

     total cpu time spent up to now is       31.7 secs

     WARNING: integrated charge=    26.00026260, expected=    26.00000000

     total energy              =    -503.11983370 Ry
     estimated scf accuracy    <       0.17866927 Ry

     iteration #  3     ecut=    50.00 Ry     beta= 0.40
     Davidson diagonalization with overlap

---- Real-time Memory Report at c_bands before calling an iterative solver
           146 MiB given to the printing process from OS
             0 MiB allocation reported by mallinfo(arena+hblkhd)
          5343 MiB available memory on the node where the printing process lives
------------------
     ethr =  6.87E-04,  avg # of iterations =  2.1
     Minimization algorithm failed to find Fermi energy: reverting to bisection
     Possible cause: smearing is larger than the electronic band-gap.

     total cpu time spent up to now is       36.2 secs

     WARNING: integrated charge=    26.00007667, expected=    26.00000000

     total energy              =    -503.14678860 Ry
     estimated scf accuracy    <       0.00705243 Ry

     iteration #  4     ecut=    50.00 Ry     beta= 0.40
     Davidson diagonalization with overlap

---- Real-time Memory Report at c_bands before calling an iterative solver
           147 MiB given to the printing process from OS
             0 MiB allocation reported by mallinfo(arena+hblkhd)
          5347 MiB available memory on the node where the printing process lives
------------------
     ethr =  2.71E-05,  avg # of iterations =  2.2
     Minimization algorithm failed to find Fermi energy: reverting to bisection
     Possible cause: smearing is larger than the electronic band-gap.

     total cpu time spent up to now is       46.1 secs

     WARNING: integrated charge=    26.00002182, expected=    26.00000000

     total energy              =    -503.14731820 Ry
     estimated scf accuracy    <       0.00029789 Ry

     iteration #  5     ecut=    50.00 Ry     beta= 0.40
     Davidson diagonalization with overlap

---- Real-time Memory Report at c_bands before calling an iterative solver
           147 MiB given to the printing process from OS
             0 MiB allocation reported by mallinfo(arena+hblkhd)
          5304 MiB available memory on the node where the printing process lives
------------------
     ethr =  1.15E-06,  avg # of iterations =  2.3
     Minimization algorithm failed to find Fermi energy: reverting to bisection
     Possible cause: smearing is larger than the electronic band-gap.

     total cpu time spent up to now is       50.5 secs

     WARNING: integrated charge=    26.00001167, expected=    26.00000000

     total energy              =    -503.14735304 Ry
     estimated scf accuracy    <       0.00001442 Ry

     iteration #  6     ecut=    50.00 Ry     beta= 0.40
     Davidson diagonalization with overlap

---- Real-time Memory Report at c_bands before calling an iterative solver
           147 MiB given to the printing process from OS
             0 MiB allocation reported by mallinfo(arena+hblkhd)
          5302 MiB available memory on the node where the printing process lives
------------------
     ethr =  5.54E-08,  avg # of iterations =  2.0
     Minimization algorithm failed to find Fermi energy: reverting to bisection
     Possible cause: smearing is larger than the electronic band-gap.

     total cpu time spent up to now is       55.2 secs

     total energy              =    -503.14735533 Ry
     estimated scf accuracy    <       0.00000851 Ry

     iteration #  7     ecut=    50.00 Ry     beta= 0.40
     Davidson diagonalization with overlap

---- Real-time Memory Report at c_bands before calling an iterative solver
           147 MiB given to the printing process from OS
             0 MiB allocation reported by mallinfo(arena+hblkhd)
          5301 MiB available memory on the node where the printing process lives
------------------
     ethr =  3.27E-08,  avg # of iterations =  2.0
     Minimization algorithm failed to find Fermi energy: reverting to bisection
     Possible cause: smearing is larger than the electronic band-gap.

     total cpu time spent up to now is       59.1 secs

     total energy              =    -503.14735592 Ry
     estimated scf accuracy    <       0.00000003 Ry

     iteration #  8     ecut=    50.00 Ry     beta= 0.40
     Davidson diagonalization with overlap

---- Real-time Memory Report at c_bands before calling an iterative solver
           147 MiB given to the printing process from OS
             0 MiB allocation reported by mallinfo(arena+hblkhd)
          5299 MiB available memory on the node where the printing process lives
------------------
     ethr =  1.13E-10,  avg # of iterations =  3.1
     Minimization algorithm failed to find Fermi energy: reverting to bisection
     Possible cause: smearing is larger than the electronic band-gap.

     total cpu time spent up to now is       64.9 secs

     total energy              =    -503.14735593 Ry
     estimated scf accuracy    <       0.00000011 Ry

     iteration #  9     ecut=    50.00 Ry     beta= 0.40
     Davidson diagonalization with overlap

---- Real-time Memory Report at c_bands before calling an iterative solver
           147 MiB given to the printing process from OS
             0 MiB allocation reported by mallinfo(arena+hblkhd)
          5281 MiB available memory on the node where the printing process lives
------------------
     ethr =  1.13E-10,  avg # of iterations =  2.4
     Minimization algorithm failed to find Fermi energy: reverting to bisection
     Possible cause: smearing is larger than the electronic band-gap.

     total cpu time spent up to now is       69.3 secs

     End of self-consistent calculation

          k = 0.0000 0.0000 0.0000 (  1021 PWs)   bands (ev):

  -116.1904 -70.3718 -70.3718 -70.3718  -8.3212   2.4429   2.4429   3.0983
     3.0983   3.0983   6.8077   7.8370   7.8370   7.8370  21.5766  21.5766
    23.0600

     occupation numbers 
     1.0000   1.0000   1.0000   1.0000   1.0000   1.0000   1.0000   1.0000
     1.0000   1.0000   1.0000   1.0000   1.0000   1.0000   0.0000   0.0000
     0.0000

          k = 0.0000 0.0000 0.0833 (   993 PWs)   bands (ev):

  -116.1903 -70.3719 -70.3716 -70.3716  -8.2782   2.4477   2.4593   3.0760
     3.0760   3.0997   6.2611   7.8868   7.8868   8.3581  20.5117  21.6749
    23.0165

     occupation numbers 
     1.0000   1.0000   1.0000   1.0000   1.0000   1.0000   1.0000   1.0000
     1.0000   1.0000   1.0000   1.0000   1.0000   1.0778   0.0000   0.0000
     0.0000

          k = 0.0000 0.0000 0.1667 (   985 PWs)   bands (ev):

  -116.1903 -70.3730 -70.3714 -70.3714  -8.1577   2.4607   2.4847   3.0164
     3.0164   3.1033   5.4426   8.0228   8.0228   9.1552  18.9328  21.9714
    22.8846

     occupation numbers 
     1.0000   1.0000   1.0000   1.0000   1.0000   1.0000   1.0000   1.0000
     1.0000   1.0000   1.0000   1.0004   1.0004   0.0000   0.0000   0.0000
     0.0000

          k = 0.0000 0.0000 0.2500 (   992 PWs)   bands (ev):

  -116.1902 -70.3746 -70.3713 -70.3713  -7.9845   2.4494   2.4784   2.9385
     2.9385   3.1082   4.7532   8.2090   8.2090   9.9806  17.3216  22.6748
    22.6749

     occupation numbers 
     1.0000   1.0000   1.0000   1.0000   1.0000   1.0000   1.0000   1.0000
     1.0000   1.0000   1.0000   1.0181   1.0181   0.0000   0.0000   0.0000
     0.0000

          k = 0.0000 0.0000 0.3333 (   980 PWs)   bands (ev):

  -116.1901 -70.3759 -70.3711 -70.3711  -7.7997   2.2867   2.4962   2.8642
     2.8642   3.1131   4.3416   8.3967   8.3967  10.8574  15.7690  22.4328
    22.4328

     occupation numbers 
     1.0000   1.0000   1.0000   1.0000   1.0000   1.0000   1.0000   1.0000
     1.0000   1.0000   1.0000   1.0831   1.0831   0.0000   0.0000   0.0000
     0.0000

          k = 0.0000 0.0000 0.4167 (   996 PWs)   bands (ev):

  -116.1901 -70.3771 -70.3712 -70.3712  -7.6561   2.0710   2.5092   2.8117
     2.8117   3.1166   4.1869   8.5356   8.5356  11.8259  14.3434  22.2365
    22.2365

     occupation numbers 
     1.0000   1.0000   1.0000   1.0000   1.0000   1.0000   1.0000   1.0000
     1.0000   1.0000   1.0000   0.8893   0.8893   0.0000   0.0000   0.0000
     0.0000

          k = 0.0000 0.0000-0.5000 (   972 PWs)   bands (ev):

  -116.1900 -70.3773 -70.3710 -70.3710  -7.6014   1.9737   2.5140   2.7930
     2.7930   3.1180   4.1559   8.5868   8.5868  12.6785  13.3294  22.1611
    22.1611

     occupation numbers 
     1.0000   1.0000   1.0000   1.0000   1.0000   1.0000   1.0000   1.0000
     1.0000   1.0000   1.0000   0.7200   0.7200   0.0000   0.0000   0.0000
     0.0000

          k = 0.0000 0.0833 0.0833 (   991 PWs)   bands (ev):

  -116.1903 -70.3719 -70.3719 -70.3715  -8.2362   2.4574   2.4729   3.0530
     3.0684   3.0877   6.0100   7.6610   7.9333   8.8561  20.3612  20.8690
    22.9866

     occupation numbers 
     1.0000   1.0000   1.0000   1.0000   1.0000   1.0000   1.0000   1.0000
     1.0000   1.0000   1.0000   1.0000   1.0000   0.0400   0.0000   0.0000
     0.0000

          k = 0.0000 0.0833 0.1667 (   991 PWs)   bands (ev):

  -116.1903 -70.3730 -70.3718 -70.3715  -8.1180   2.4703   2.5052   2.9936
     3.0163   3.0875   5.4047   7.6365   8.0604   9.5891  18.9779  20.8004
    22.8920

     occupation numbers 
     1.0000   1.0000   1.0000   1.0000   1.0000   1.0000   1.0000   1.0000
     1.0000   1.0000   1.0000   1.0000   1.0011   0.0000   0.0000   0.0000
     0.0000

          k = 0.0000 0.0833 0.2500 (   985 PWs)   bands (ev):

  -116.1902 -70.3745 -70.3717 -70.3712  -7.9483   2.4645   2.5055   2.9220
     2.9423   3.0932   4.7843   7.7935   8.2344  10.3474  17.3607  20.9595
    22.7320

     occupation numbers 
     1.0000   1.0000   1.0000   1.0000   1.0000   1.0000   1.0000   1.0000
     1.0000   1.0000   1.0000   1.0000   1.0259   0.0000   0.0000   0.0000
     0.0000

          k = 0.0000 0.0833 0.3333 (   990 PWs)   bands (ev):

  -116.1901 -70.3760 -70.3716 -70.3711  -7.7677   2.3295   2.5161   2.8585
     2.8710   3.0993   4.3796   8.0010   8.4098  11.1511  15.8016  21.1053
    22.5369

     occupation numbers 
     1.0000   1.0000   1.0000   1.0000   1.0000   1.0000   1.0000   1.0000
     1.0000   1.0000   1.0000   1.0003   1.0809   0.0000   0.0000   0.0000
     0.0000

          k = 0.0000 0.0833 0.4167 (   990 PWs)   bands (ev):

  -116.1900 -70.3771 -70.3715 -70.3711  -7.6275   2.1365   2.5293   2.8106
     2.8205   3.1039   4.2151   8.1696   8.5394  12.0570  14.3778  21.1849
    22.3728

     occupation numbers 
     1.0000   1.0000   1.0000   1.0000   1.0000   1.0000   1.0000   1.0000
     1.0000   1.0000   1.0000   1.0097   0.8781   0.0000   0.0000   0.0000
     0.0000

          k = 0.0000 0.0833-0.5000 (   990 PWs)   bands (ev):

  -116.1900 -70.3775 -70.3714 -70.3711  -7.5742   2.0479   2.5346   2.7922
     2.8024   3.1055   4.1798   8.2342   8.5872  13.0415  13.2086  21.2058
    22.3085

     occupation numbers 
     1.0000   1.0000   1.0000   1.0000   1.0000   1.0000   1.0000   1.0000
     1.0000   1.0000   1.0000   1.0258   0.7186   0.0000   0.0000   0.0000
     0.0000

          k = 0.0000 0.1667 0.1667 (   985 PWs)   bands (ev):

  -116.1902 -70.3729 -70.3729 -70.3713  -8.0067   2.4788   2.5638   2.9375
     3.0029   3.0584   5.2197   7.1856   8.1632  10.2863  19.0757  19.1500
    22.9016

     occupation numbers 
     1.0000   1.0000   1.0000   1.0000   1.0000   1.0000   1.0000   1.0000
     1.0000   1.0000   1.0000   1.0000   1.0087   0.0000   0.0000   0.0000
     0.0000

          k = 0.0000 0.1667 0.2500 (   987 PWs)   bands (ev):

  -116.1901 -70.3744 -70.3728 -70.3712  -7.8473   2.4719   2.6045   2.8821
     2.9505   3.0549   4.8475   7.0739   8.3039  10.9712  17.4440  19.2815
    22.8866

     occupation numbers 
     1.0000   1.0000   1.0000   1.0000   1.0000   1.0000   1.0000   1.0000
     1.0000   1.0000   1.0000   1.0000   1.0552   0.0000   0.0000   0.0000
     0.0000

          k = 0.0000 0.1667 0.3333 (   994 PWs)   bands (ev):

  -116.1900 -70.3760 -70.3727 -70.3711  -7.6785   2.4110   2.6025   2.8461
     2.8894   3.0624   4.4922   7.2017   8.4454  11.6391  15.9029  19.4691
    22.8352

     occupation numbers 
     1.0000   1.0000   1.0000   1.0000   1.0000   1.0000   1.0000   1.0000
     1.0000   1.0000   1.0000   1.0000   1.0607   0.0000   0.0000   0.0000
     0.0000

          k = 0.0000 0.1667 0.4167 (   991 PWs)   bands (ev):

  -116.1900 -70.3770 -70.3726 -70.3710  -7.5480   2.2993   2.6020   2.8109
     2.8447   3.0692   4.3065   7.3735   8.5498  12.3277  14.6023  19.6176
    22.7724

     occupation numbers 
     1.0000   1.0000   1.0000   1.0000   1.0000   1.0000   1.0000   1.0000
     1.0000   1.0000   1.0000   1.0000   0.8464   0.0000   0.0000   0.0000
     0.0000

          k = 0.0000 0.1667-0.5000 (   978 PWs)   bands (ev):

  -116.1899 -70.3773 -70.3724 -70.3709  -7.4986   2.2418   2.6042   2.7937
     2.8285   3.0719   4.2586   7.4492   8.5882  12.8341  13.8737  19.6752
    22.7439

     occupation numbers 
     1.0000   1.0000   1.0000   1.0000   1.0000   1.0000   1.0000   1.0000
     1.0000   1.0000   1.0000   1.0000   0.7150   0.0000   0.0000   0.0000
     0.0000

          k = 0.0000 0.2500 0.2500 (   995 PWs)   bands (ev):

  -116.1900 -70.3744 -70.3743 -70.3711  -7.7035   2.4718   2.7173   2.8436
     2.9476   3.0181   4.8367   6.5402   8.3988  11.5192  17.1712  18.1343
    23.0915

     occupation numbers 
     1.0000   1.0000   1.0000   1.0000   1.0000   1.0000   1.0000   1.0000
     1.0000   1.0000   1.0000   1.0000   1.0829   0.0000   0.0000   0.0000
     0.0000

          k = 0.0000 0.2500 0.3333 (   990 PWs)   bands (ev):

  -116.1900 -70.3759 -70.3742 -70.3710  -7.5520   2.4631   2.7639   2.8390
     2.9130   3.0144   4.6631   6.4074   8.4940  11.9131  16.0507  18.1476
    23.2813

     occupation numbers 
     1.0000   1.0000   1.0000   1.0000   1.0000   1.0000   1.0000   1.0000
     1.0000   1.0000   1.0000   1.0000   0.9911   0.0000   0.0000   0.0000
     0.0000

          k = 0.0000 0.2500 0.4167 (   978 PWs)   bands (ev):

  -116.1899 -70.3768 -70.3740 -70.3708  -7.4357   2.4507   2.7640   2.8266
     2.8778   3.0226   4.4793   6.5125   8.5639  12.1347  15.1754  18.3268
    23.4042

     occupation numbers 
     1.0000   1.0000   1.0000   1.0000   1.0000   1.0000   1.0000   1.0000
     1.0000   1.0000   1.0000   1.0000   0.8003   0.0000   0.0000   0.0000
     0.0000

          k = 0.0000 0.2500-0.5000 (   982 PWs)   bands (ev):

  -116.1899 -70.3772 -70.3740 -70.3708  -7.3919   2.4448   2.7660   2.8060
     2.8643   3.0263   4.4148   6.5839   8.5895  12.2011  14.8604  18.4077
    23.4444

     occupation numbers 
     1.0000   1.0000   1.0000   1.0000   1.0000   1.0000   1.0000   1.0000
     1.0000   1.0000   1.0000   1.0000   0.7100   0.0000   0.0000   0.0000
     0.0000

          k = 0.0000 0.3333 0.3333 (   999 PWs)   bands (ev):

  -116.1899 -70.3758 -70.3757 -70.3710  -7.4198   2.5014   2.8271   2.9254
     2.9265   2.9776   4.7985   5.8751   8.5425  11.8382  16.0832  17.4858
    23.7843

     occupation numbers 
     1.0000   1.0000   1.0000   1.0000   1.0000   1.0000   1.0000   1.0000
     1.0000   1.0000   1.0000   1.0000   0.8689   0.0000   0.0000   0.0000
     0.0000

          k = 0.0000 0.3333 0.4167 (   988 PWs)   bands (ev):

  -116.1898 -70.3768 -70.3756 -70.3708  -7.3190   2.5376   2.8327   2.9108
     2.9768   2.9973   4.7407   5.7812   8.5779  11.5573  15.9202  17.4807
    23.7831

     occupation numbers 
     1.0000   1.0000   1.0000   1.0000   1.0000   1.0000   1.0000   1.0000
     1.0000   1.0000   1.0000   1.0000   0.7518   0.0000   0.0000   0.0000
     0.0000

          k = 0.0000 0.3333-0.5000 (   986 PWs)   bands (ev):

  -116.1898 -70.3772 -70.3755 -70.3707  -7.2812   2.5556   2.8363   2.9004
     2.9813   3.0089   4.6713   5.8304   8.5909  11.4036  15.8365  17.5646
    24.3609

     occupation numbers 
     1.0000   1.0000   1.0000   1.0000   1.0000   1.0000   1.0000   1.0000
     1.0000   1.0000   1.0000   1.0000   0.7050   0.0000   0.0000   0.0000
     0.0000

          k = 0.0000 0.4167 0.4167 (   998 PWs)   bands (ev):

  -116.1898 -70.3768 -70.3767 -70.3707  -7.2304   2.5903   2.8622   2.9311
     2.9478   3.1446   4.9792   5.3413   8.5881  10.9515  16.5082  17.0986
    22.9999

     occupation numbers 
     1.0000   1.0000   1.0000   1.0000   1.0000   1.0000   1.0000   1.0000
     1.0000   1.0000   1.0000   1.0000   0.7151   0.0000   0.0000   0.0000
     0.0000

          k = 0.0000 0.4167-0.5000 (   992 PWs)   bands (ev):

  -116.1898 -70.3772 -70.3767 -70.3706  -7.1972   2.6099   2.8776   2.9271
     2.9487   3.1910   4.9734   5.3104   8.5919  10.6893  16.6345  17.1100
    22.6675

     occupation numbers 
     1.0000   1.0000   1.0000   1.0000   1.0000   1.0000   1.0000   1.0000
     1.0000   1.0000   1.0000   1.0000   0.7014   0.0000   0.0000   0.0000
     0.0000

          k = 0.0000-0.5000-0.5000 (   992 PWs)   bands (ev):

  -116.1897 -70.3772 -70.3772 -70.3706  -7.1658   2.6273   2.8991   2.9369
     2.9369   3.2528   5.1218   5.1218   8.5922  10.3910  16.9688  16.9688
    22.3012

     occupation numbers 
     1.0000   1.0000   1.0000   1.0000   1.0000   1.0000   1.0000   1.0000
     1.0000   1.0000   1.0000   1.0000   0.7001   0.0000   0.0000   0.0000
     0.0000

          k = 0.0833 0.0833 0.0833 (   991 PWs)   bands (ev):

  -116.1903 -70.3719 -70.3719 -70.3718  -8.1948   2.4778   2.4778   3.0396
     3.0640   3.0640   5.8401   7.7145   7.7145   9.2522  20.3945  20.3945
    22.1094

     occupation numbers 
     1.0000   1.0000   1.0000   1.0000   1.0000   1.0000   1.0000   1.0000
     1.0000   1.0000   1.0000   1.0000   1.0000   0.0000   0.0000   0.0000
     0.0000

          k = 0.0833 0.0833 0.1667 (   981 PWs)   bands (ev):

  -116.1902 -70.3729 -70.3717 -70.3717  -8.0789   2.4915   2.5156   2.9909
     3.0011   3.0681   5.3653   7.5804   7.8609   9.9236  19.0168  20.4806
    21.9247

     occupation numbers 
     1.0000   1.0000   1.0000   1.0000   1.0000   1.0000   1.0000   1.0000
     1.0000   1.0000   1.0000   1.0000   1.0000   0.0000   0.0000   0.0000
     0.0000

          k = 0.0833 0.0833 0.2500 (   983 PWs)   bands (ev):

  -116.1901 -70.3744 -70.3716 -70.3716  -7.9127   2.5017   2.5107   2.9185
     2.9353   3.0758   4.8095   7.6616   8.0620  10.6271  17.4091  20.5805
    22.0085

     occupation numbers 
     1.0000   1.0000   1.0000   1.0000   1.0000   1.0000   1.0000   1.0000
     1.0000   1.0000   1.0000   1.0000   1.0011   0.0000   0.0000   0.0000
     0.0000

          k = 0.0833 0.0833 0.3333 (   990 PWs)   bands (ev):

  -116.1901 -70.3760 -70.3716 -70.3715  -7.7360   2.3755   2.5311   2.8388
     2.8905   3.0837   4.4178   7.8319   8.2656  11.3698  15.8539  20.6455
    22.1102

     occupation numbers 
     1.0000   1.0000   1.0000   1.0000   1.0000   1.0000   1.0000   1.0000
     1.0000   1.0000   1.0000   1.0000   1.0378   0.0000   0.0000   0.0000
     0.0000

          k = 0.0833 0.0833 0.4167 (   990 PWs)   bands (ev):

  -116.1900 -70.3770 -70.3715 -70.3714  -7.5989   2.2000   2.5475   2.7812
     2.8545   3.0897   4.2481   7.9856   8.4170  12.2116  14.4492  20.6593
    22.1724

     occupation numbers 
     1.0000   1.0000   1.0000   1.0000   1.0000   1.0000   1.0000   1.0000
     1.0000   1.0000   1.0000   1.0002   1.0787   0.0000   0.0000   0.0000
     0.0000

          k = 0.0833 0.0833-0.5000 (   986 PWs)   bands (ev):

  -116.1900 -70.3774 -70.3714 -70.3714  -7.5470   2.1188   2.5541   2.7599
     2.8397   3.0920   4.2097   8.0466   8.4729  13.1084  13.3506  20.6553
    22.1914

     occupation numbers 
     1.0000   1.0000   1.0000   1.0000   1.0000   1.0000   1.0000   1.0000
     1.0000   1.0000   1.0000   1.0008   1.0278   0.0000   0.0000   0.0000
     0.0000

          k = 0.0833 0.1667 0.1667 (   980 PWs)   bands (ev):

  -116.1902 -70.3728 -70.3728 -70.3716  -7.9695   2.5099   2.5682   2.9438
     2.9900   3.0316   5.1930   7.2505   7.8985  10.5299  19.0560  19.2162
    21.6837

     occupation numbers 
     1.0000   1.0000   1.0000   1.0000   1.0000   1.0000   1.0000   1.0000
     1.0000   1.0000   1.0000   1.0000   1.0000   0.0000   0.0000   0.0000
     0.0000

          k = 0.0833 0.1667 0.2500 (   987 PWs)   bands (ev):

  -116.1901 -70.3744 -70.3727 -70.3716  -7.8130   2.5115   2.6072   2.8823
     2.9455   3.0318   4.8576   7.1101   8.0664  11.1447  17.5194  19.2385
    21.8697

     occupation numbers 
     1.0000   1.0000   1.0000   1.0000   1.0000   1.0000   1.0000   1.0000
     1.0000   1.0000   1.0000   1.0000   1.0013   0.0000   0.0000   0.0000
     0.0000

          k = 0.0833 0.1667 0.3333 (   992 PWs)   bands (ev):

  -116.1900 -70.3759 -70.3727 -70.3715  -7.6474   2.4611   2.6063   2.8156
     2.9161   3.0430   4.5294   7.1915   8.2459  11.7482  15.9989  19.3185
    22.1253

     occupation numbers 
     1.0000   1.0000   1.0000   1.0000   1.0000   1.0000   1.0000   1.0000
     1.0000   1.0000   1.0000   1.0000   1.0299   0.0000   0.0000   0.0000
     0.0000

          k = 0.0833 0.1667 0.4167 (   989 PWs)   bands (ev):

  -116.1900 -70.3770 -70.3726 -70.3714  -7.5195   2.3562   2.6130   2.7575
     2.8931   3.0525   4.3530   7.3300   8.3813  12.3673  14.7353  19.3522
    22.3366

     occupation numbers 
     1.0000   1.0000   1.0000   1.0000   1.0000   1.0000   1.0000   1.0000
     1.0000   1.0000   1.0000   1.0000   1.0828   0.0000   0.0000   0.0000
     0.0000

          k = 0.0833 0.1667-0.5000 (   984 PWs)   bands (ev):

  -116.1899 -70.3773 -70.3725 -70.3714  -7.4711   2.3019   2.6192   2.7335
     2.8817   3.0562   4.3068   7.3936   8.4317  12.7876  14.0811  19.3581
    22.4206

     occupation numbers 
     1.0000   1.0000   1.0000   1.0000   1.0000   1.0000   1.0000   1.0000
     1.0000   1.0000   1.0000   1.0000   1.0712   0.0000   0.0000   0.0000
     0.0000

          k = 0.0833 0.2500 0.2500 (   992 PWs)   bands (ev):

  -116.1900 -70.3743 -70.3743 -70.3715  -7.6711   2.5120   2.7151   2.8387
     2.9548   2.9906   4.8412   6.6233   8.1810  11.6134  17.3197  18.0547
    22.1133

     occupation numbers 
     1.0000   1.0000   1.0000   1.0000   1.0000   1.0000   1.0000   1.0000
     1.0000   1.0000   1.0000   1.0000   1.0118   0.0000   0.0000   0.0000
     0.0000

          k = 0.0833 0.2500 0.3333 (   991 PWs)   bands (ev):

  -116.1899 -70.3758 -70.3742 -70.3714  -7.5219   2.5044   2.7600   2.8004
     2.9416   2.9955   4.6968   6.4735   8.3087  11.9554  16.1718  18.0332
    22.4602

     occupation numbers 
     1.0000   1.0000   1.0000   1.0000   1.0000   1.0000   1.0000   1.0000
     1.0000   1.0000   1.0000   1.0000   1.0574   0.0000   0.0000   0.0000
     0.0000

          k = 0.0833 0.2500 0.4167 (   988 PWs)   bands (ev):

  -116.1899 -70.3769 -70.3740 -70.3713  -7.4074   2.4939   2.7516   2.7630
     2.9269   3.0103   4.5459   6.5459   8.4061  12.1555  15.2814  18.1249
    22.7910

     occupation numbers 
     1.0000   1.0000   1.0000   1.0000   1.0000   1.0000   1.0000   1.0000
     1.0000   1.0000   1.0000   1.0000   1.0818   0.0000   0.0000   0.0000
     0.0000

          k = 0.0833 0.2500-0.5000 (   986 PWs)   bands (ev):

  -116.1899 -70.3772 -70.3740 -70.3713  -7.3642   2.4895   2.7259   2.7624
     2.9162   3.0165   4.4927   6.6035   8.4426  12.2193  14.9593  18.1592
    22.9439

     occupation numbers 
     1.0000   1.0000   1.0000   1.0000   1.0000   1.0000   1.0000   1.0000
     1.0000   1.0000   1.0000   1.0000   1.0632   0.0000   0.0000   0.0000
     0.0000

          k = 0.0833 0.3333 0.3333 (   984 PWs)   bands (ev):

  -116.1899 -70.3757 -70.3756 -70.3713  -7.3907   2.5343   2.7884   2.8648
     2.9544   2.9956   4.8396   5.9819   8.3827  11.8727  16.1591  17.3501
    22.9095

     occupation numbers 
     1.0000   1.0000   1.0000   1.0000   1.0000   1.0000   1.0000   1.0000
     1.0000   1.0000   1.0000   1.0000   1.0829   0.0000   0.0000   0.0000
     0.0000

          k = 0.0833 0.3333 0.4167 (   994 PWs)   bands (ev):

  -116.1898 -70.3768 -70.3756 -70.3713  -7.2907   2.5700   2.7664   2.8787
     2.9458   3.0455   4.8282   5.8737   8.4400  11.6129  15.9242  17.3004
    23.3425

     occupation numbers 
     1.0000   1.0000   1.0000   1.0000   1.0000   1.0000   1.0000   1.0000
     1.0000   1.0000   1.0000   1.0000   1.0653   0.0000   0.0000   0.0000
     0.0000

          k = 0.0833 0.3333-0.5000 (   994 PWs)   bands (ev):

  -116.1898 -70.3772 -70.3755 -70.3712  -7.2531   2.5937   2.7461   2.8889
     2.9312   3.0622   4.7841   5.9088   8.4617  11.4702  15.8195  17.3467
    23.6456

     occupation numbers 
     1.0000   1.0000   1.0000   1.0000   1.0000   1.0000   1.0000   1.0000
     1.0000   1.0000   1.0000   1.0000   1.0432   0.0000   0.0000   0.0000
     0.0000

          k = 0.0833 0.4167 0.4167 (  1001 PWs)   bands (ev):

  -116.1898 -70.3768 -70.3768 -70.3712  -7.2021   2.6244   2.7895   2.8723
     2.9337   3.1590   5.0872   5.4743   8.4668  11.0334  16.4054  16.9236
    23.1539

     occupation numbers 
     1.0000   1.0000   1.0000   1.0000   1.0000   1.0000   1.0000   1.0000
     1.0000   1.0000   1.0000   1.0000   1.0365   0.0000   0.0000   0.0000
     0.0000

          k = 0.0833 0.4167-0.5000 (   998 PWs)   bands (ev):

  -116.1898 -70.3772 -70.3767 -70.3711  -7.1689   2.6497   2.7964   2.8758
     2.9139   3.2004   5.1122   5.4370   8.4771  10.7793  16.5029  16.9129
    22.8865

     occupation numbers 
     1.0000   1.0000   1.0000   1.0000   1.0000   1.0000   1.0000   1.0000
     1.0000   1.0000   1.0000   1.0000   1.0214   0.0000   0.0000   0.0000
     0.0000

          k = 0.0833-0.5000-0.5000 (   996 PWs)   bands (ev):

  -116.1897 -70.3772 -70.3772 -70.3710  -7.1374   2.6695   2.8613   2.8631
     2.8631   3.2535   5.2696   5.2696   8.4828  10.4870  16.7799  16.7799
    22.5559

     occupation numbers 
     1.0000   1.0000   1.0000   1.0000   1.0000   1.0000   1.0000   1.0000
     1.0000   1.0000   1.0000   1.0000   1.0118   0.0000   0.0000   0.0000
     0.0000

          k = 0.1667 0.1667 0.1667 (   997 PWs)   bands (ev):

  -116.1901 -70.3729 -70.3728 -70.3728  -7.8655   2.5805   2.5805   2.9598
     2.9609   2.9609   5.0868   7.4282   7.4282  11.0055  18.9896  18.9896
    20.5078

     occupation numbers 
     1.0000   1.0000   1.0000   1.0000   1.0000   1.0000   1.0000   1.0000
     1.0000   1.0000   1.0000   1.0000   1.0000   0.0000   0.0000   0.0000
     0.0000

          k = 0.1667 0.1667 0.2500 (   988 PWs)   bands (ev):

  -116.1900 -70.3743 -70.3727 -70.3726  -7.7171   2.5981   2.6228   2.8694
     2.9424   2.9810   4.8731   7.1203   7.6741  11.4867  17.6710  18.8654
    20.6879

     occupation numbers 
     1.0000   1.0000   1.0000   1.0000   1.0000   1.0000   1.0000   1.0000
     1.0000   1.0000   1.0000   1.0000   1.0000   0.0000   0.0000   0.0000
     0.0000

          k = 0.1667 0.1667 0.3333 (   994 PWs)   bands (ev):

  -116.1900 -70.3759 -70.3726 -70.3726  -7.5606   2.5798   2.6182   2.7809
     2.9464   2.9985   4.6362   7.0496   7.9259  11.9409  16.2281  18.6962
    21.2863

     occupation numbers 
     1.0000   1.0000   1.0000   1.0000   1.0000   1.0000   1.0000   1.0000
     1.0000   1.0000   1.0000   1.0000   1.0000   0.0000   0.0000   0.0000
     0.0000

          k = 0.1667 0.1667 0.4167 (   984 PWs)   bands (ev):

  -116.1899 -70.3769 -70.3725 -70.3724  -7.4402   2.4938   2.6398   2.7122
     2.9373   3.0136   4.4953   7.0980   8.1155  12.3745  15.0840  18.5403
    21.8492

     occupation numbers 
     1.0000   1.0000   1.0000   1.0000   1.0000   1.0000   1.0000   1.0000
     1.0000   1.0000   1.0000   1.0000   1.0036   0.0000   0.0000   0.0000
     0.0000

          k = 0.1667 0.1667-0.5000 (   974 PWs)   bands (ev):

  -116.1899 -70.3771 -70.3724 -70.3724  -7.3948   2.4505   2.6658   2.6696
     2.9285   3.0200   4.4564   7.1326   8.1864  12.6165  14.5835  18.4761
    22.0900

     occupation numbers 
     1.0000   1.0000   1.0000   1.0000   1.0000   1.0000   1.0000   1.0000
     1.0000   1.0000   1.0000   1.0000   1.0128   0.0000   0.0000   0.0000
     0.0000

          k = 0.1667 0.2500 0.2500 (   994 PWs)   bands (ev):

  -116.1900 -70.3743 -70.3742 -70.3726  -7.5809   2.6054   2.7025   2.8329
     2.9268   2.9735   4.8582   6.8509   7.6839  11.8013  17.6279  17.8196
    20.5975

     occupation numbers 
     1.0000   1.0000   1.0000   1.0000   1.0000   1.0000   1.0000   1.0000
     1.0000   1.0000   1.0000   1.0000   1.0000   0.0000   0.0000   0.0000
     0.0000

          k = 0.1667 0.2500 0.3333 (   993 PWs)   bands (ev):

  -116.1899 -70.3757 -70.3741 -70.3725  -7.4378   2.5914   2.7139   2.7827
     2.9533   2.9781   4.7983   6.6458   7.8785  12.0364  16.4214  17.6723
    21.1237

     occupation numbers 
     1.0000   1.0000   1.0000   1.0000   1.0000   1.0000   1.0000   1.0000
     1.0000   1.0000   1.0000   1.0000   1.0000   0.0000   0.0000   0.0000
     0.0000

          k = 0.1667 0.2500 0.4167 (   990 PWs)   bands (ev):

  -116.1898 -70.3768 -70.3740 -70.3724  -7.3283   2.5792   2.6599   2.7672
     2.9536   2.9937   4.7405   6.6166   8.0475  12.1890  15.5121  17.5298
    21.7639

     occupation numbers 
     1.0000   1.0000   1.0000   1.0000   1.0000   1.0000   1.0000   1.0000
     1.0000   1.0000   1.0000   1.0000   1.0008   0.0000   0.0000   0.0000
     0.0000

          k = 0.1667 0.2500-0.5000 (   990 PWs)   bands (ev):

  -116.1898 -70.3772 -70.3740 -70.3724  -7.2871   2.5846   2.6186   2.7666
     2.9403   3.0058   4.7208   6.6317   8.1131  12.2452  15.1782  17.4638
    22.0784

     occupation numbers 
     1.0000   1.0000   1.0000   1.0000   1.0000   1.0000   1.0000   1.0000
     1.0000   1.0000   1.0000   1.0000   1.0034   0.0000   0.0000   0.0000
     0.0000

          k = 0.1667 0.3333 0.3333 (   982 PWs)   bands (ev):

  -116.1898 -70.3756 -70.3755 -70.3723  -7.3095   2.5754   2.7430   2.7815
     2.9657   3.0114   4.9726   6.2717   7.9854  11.9605  16.2767  16.9624
    21.4255

     occupation numbers 
     1.0000   1.0000   1.0000   1.0000   1.0000   1.0000   1.0000   1.0000
     1.0000   1.0000   1.0000   1.0000   1.0002   0.0000   0.0000   0.0000
     0.0000

          k = 0.1667 0.3333 0.4167 (   988 PWs)   bands (ev):

  -116.1898 -70.3767 -70.3755 -70.3723  -7.2117   2.5816   2.6973   2.7947
     2.9297   3.0763   5.0741   6.1280   8.0965  11.7673  15.8716  16.7834
    21.9365

     occupation numbers 
     1.0000   1.0000   1.0000   1.0000   1.0000   1.0000   1.0000   1.0000
     1.0000   1.0000   1.0000   1.0000   1.0024   0.0000   0.0000   0.0000
     0.0000

          k = 0.1667 0.3333-0.5000 (   988 PWs)   bands (ev):

  -116.1897 -70.3771 -70.3754 -70.3722  -7.1750   2.6069   2.6511   2.8083
     2.9051   3.0986   5.0937   6.1219   8.1422  11.6584  15.7215  16.7333
    22.2439

     occupation numbers 
     1.0000   1.0000   1.0000   1.0000   1.0000   1.0000   1.0000   1.0000
     1.0000   1.0000   1.0000   1.0000   1.0060   0.0000   0.0000   0.0000
     0.0000

          k = 0.1667 0.4167 0.4167 (   990 PWs)   bands (ev):

  -116.1897 -70.3767 -70.3766 -70.3722  -7.1232   2.6043   2.7100   2.7794
     2.8713   3.1762   5.3845   5.8269   8.1588  11.2772  16.0689  16.4329
    22.2395

     occupation numbers 
     1.0000   1.0000   1.0000   1.0000   1.0000   1.0000   1.0000   1.0000
     1.0000   1.0000   1.0000   1.0000   1.0081   0.0000   0.0000   0.0000
     0.0000

          k = 0.1667 0.4167-0.5000 (   994 PWs)   bands (ev):

  -116.1897 -70.3771 -70.3767 -70.3721  -7.0900   2.6397   2.6835   2.7934
     2.8265   3.2126   5.4774   5.7741   8.1855  11.0517  16.1097  16.3603
    22.4428

     occupation numbers 
     1.0000   1.0000   1.0000   1.0000   1.0000   1.0000   1.0000   1.0000
     1.0000   1.0000   1.0000   1.0000   1.0127   0.0000   0.0000   0.0000
     0.0000

          k = 0.1667-0.5000-0.5000 (  1000 PWs)   bands (ev):

  -116.1897 -70.3771 -70.3771 -70.3722  -7.0583   2.6931   2.6931   2.7530
     2.7853   3.2555   5.6537   5.6537   8.2039  10.7821  16.2531  16.2531
    22.5343

     occupation numbers 
     1.0000   1.0000   1.0000   1.0000   1.0000   1.0000   1.0000   1.0000
     1.0000   1.0000   1.0000   1.0000   1.0168   0.0000   0.0000   0.0000
     0.0000

          k = 0.2500 0.2500 0.2500 (  1003 PWs)   bands (ev):

  -116.1899 -70.3742 -70.3742 -70.3742  -7.4529   2.6637   2.6637   2.8712
     2.8712   2.9867   4.8995   7.1675   7.1675  11.9684  17.4553  17.4553
    19.8645

     occupation numbers 
     1.0000   1.0000   1.0000   1.0000   1.0000   1.0000   1.0000   1.0000
     1.0000   1.0000   1.0000   1.0000   1.0000   0.0000   0.0000   0.0000
     0.0000

          k = 0.2500 0.2500 0.3333 (   986 PWs)   bands (ev):

  -116.1898 -70.3756 -70.3740 -70.3739  -7.3189   2.6011   2.6492   2.8484
     2.9507   2.9707   4.9729   6.7998   7.4966  12.0861  16.5170  17.0406
    20.3035

     occupation numbers 
     1.0000   1.0000   1.0000   1.0000   1.0000   1.0000   1.0000   1.0000
     1.0000   1.0000   1.0000   1.0000   1.0000   0.0000   0.0000   0.0000
     0.0000

          k = 0.2500 0.2500 0.4167 (   985 PWs)   bands (ev):

  -116.1898 -70.3767 -70.3739 -70.3738  -7.2165   2.5481   2.6185   2.8437
     2.9245   3.0125   5.0514   6.6221   7.7496  12.1595  15.6900  16.7042
    21.0104

     occupation numbers 
     1.0000   1.0000   1.0000   1.0000   1.0000   1.0000   1.0000   1.0000
     1.0000   1.0000   1.0000   1.0000   1.0000   0.0000   0.0000   0.0000
     0.0000

          k = 0.2500 0.2500-0.5000 (   976 PWs)   bands (ev):

  -116.1897 -70.3770 -70.3738 -70.3738  -7.1781   2.5282   2.6041   2.8434
     2.9014   3.0325   5.0847   6.5781   7.8455  12.1865  15.3779  16.5740
    21.3604

     occupation numbers 
     1.0000   1.0000   1.0000   1.0000   1.0000   1.0000   1.0000   1.0000
     1.0000   1.0000   1.0000   1.0000   1.0000   0.0000   0.0000   0.0000
     0.0000

          k = 0.2500 0.3333 0.3333 (   988 PWs)   bands (ev):

  -116.1897 -70.3755 -70.3754 -70.3738  -7.1947   2.5378   2.6058   2.8916
     2.9191   3.0226   5.2120   6.6730   7.5137  12.0635  16.1874  16.3937
    20.2608

     occupation numbers 
     1.0000   1.0000   1.0000   1.0000   1.0000   1.0000   1.0000   1.0000
     1.0000   1.0000   1.0000   1.0000   1.0000   0.0000   0.0000   0.0000
     0.0000

          k = 0.2500 0.3333 0.4167 (   993 PWs)   bands (ev):

  -116.1897 -70.3766 -70.3754 -70.3738  -7.1001   2.4907   2.5735   2.8379
     2.9096   3.0978   5.4434   6.4764   7.7006  11.9761  15.6641  16.0372
    20.6009

     occupation numbers 
     1.0000   1.0000   1.0000   1.0000   1.0000   1.0000   1.0000   1.0000
     1.0000   1.0000   1.0000   1.0000   1.0000   0.0000   0.0000   0.0000
     0.0000

          k = 0.2500 0.3333-0.5000 (   988 PWs)   bands (ev):

  -116.1897 -70.3770 -70.3753 -70.3737  -7.0646   2.4755   2.5616   2.8025
     2.9122   3.1251   5.5429   6.4037   7.7852  11.9208  15.4831  15.8831
    20.8038

     occupation numbers 
     1.0000   1.0000   1.0000   1.0000   1.0000   1.0000   1.0000   1.0000
     1.0000   1.0000   1.0000   1.0000   1.0000   0.0000   0.0000   0.0000
     0.0000

          k = 0.2500 0.4167 0.4167 (   991 PWs)   bands (ev):

  -116.1896 -70.3766 -70.3765 -70.3737  -7.0116   2.4713   2.5359   2.7311
     2.9315   3.1873   5.8116   6.3056   7.7852  11.6709  15.5028  15.7308
    20.4397

     occupation numbers 
     1.0000   1.0000   1.0000   1.0000   1.0000   1.0000   1.0000   1.0000
     1.0000   1.0000   1.0000   1.0000   1.0000   0.0000   0.0000   0.0000
     0.0000

          k = 0.2500 0.4167-0.5000 (   998 PWs)   bands (ev):

  -116.1896 -70.3770 -70.3765 -70.3737  -6.9784   2.4751   2.5227   2.6755
     2.9374   3.2212   5.9761   6.2324   7.8338  11.5080  15.5069  15.5718
    20.4063

     occupation numbers 
     1.0000   1.0000   1.0000   1.0000   1.0000   1.0000   1.0000   1.0000
     1.0000   1.0000   1.0000   1.0000   1.0000   0.0000   0.0000   0.0000
     0.0000

          k = 0.2500-0.5000-0.5000 (  1004 PWs)   bands (ev):

  -116.1896 -70.3770 -70.3770 -70.3737  -6.9462   2.5080   2.5080   2.5922
     2.9441   3.2581   6.1669   6.1669   7.8644  11.2953  15.5050  15.5050
    20.2547

     occupation numbers 
     1.0000   1.0000   1.0000   1.0000   1.0000   1.0000   1.0000   1.0000
     1.0000   1.0000   1.0000   1.0000   1.0000   0.0000   0.0000   0.0000
     0.0000

          k = 0.3333 0.3333 0.3333 (   997 PWs)   bands (ev):

  -116.1897 -70.3755 -70.3754 -70.3754  -7.0749   2.4869   2.4869   2.8118
     3.0314   3.0314   5.5413   7.0945   7.0945  12.1343  15.7780  15.7780
    19.6916

     occupation numbers 
     1.0000   1.0000   1.0000   1.0000   1.0000   1.0000   1.0000   1.0000
     1.0000   1.0000   1.0000   1.0000   1.0000   0.0000   0.0000   0.0000
     0.0000

          k = 0.3333 0.3333 0.4167 (   992 PWs)   bands (ev):

  -116.1896 -70.3764 -70.3754 -70.3753  -6.9837   2.4081   2.4586   2.7013
     3.0372   3.1283   5.8815   6.7819   7.4259  12.1445  15.2932  15.3249
    19.5341

     occupation numbers 
     1.0000   1.0000   1.0000   1.0000   1.0000   1.0000   1.0000   1.0000
     1.0000   1.0000   1.0000   1.0000   1.0000   0.0000   0.0000   0.0000
     0.0000

          k = 0.3333 0.3333-0.5000 (   992 PWs)   bands (ev):

  -116.1896 -70.3769 -70.3753 -70.3752  -6.9495   2.3807   2.4532   2.6511
     3.0393   3.1626   6.0587   6.6362   7.5540  12.1326  15.1072  15.1430
    19.5138

     occupation numbers 
     1.0000   1.0000   1.0000   1.0000   1.0000   1.0000   1.0000   1.0000
     1.0000   1.0000   1.0000   1.0000   1.0000   0.0000   0.0000   0.0000
     0.0000

          k = 0.3333 0.4167 0.4167 (   991 PWs)   bands (ev):

  -116.1896 -70.3764 -70.3764 -70.3752  -6.8951   2.3602   2.3918   2.5648
     3.0857   3.1945   6.2903   6.8081   7.4526  12.1667  14.8530  14.9842
    18.8050

     occupation numbers 
     1.0000   1.0000   1.0000   1.0000   1.0000   1.0000   1.0000   1.0000
     1.0000   1.0000   1.0000   1.0000   1.0000   0.0000   0.0000   0.0000
     0.0000

          k = 0.3333 0.4167-0.5000 (   994 PWs)   bands (ev):

  -116.1895 -70.3769 -70.3764 -70.3752  -6.8619   2.3427   2.3806   2.5001
     3.0933   3.2280   6.5120   6.7078   7.5324  12.1270  14.7459  14.8367
    18.5343

     occupation numbers 
     1.0000   1.0000   1.0000   1.0000   1.0000   1.0000   1.0000   1.0000
     1.0000   1.0000   1.0000   1.0000   1.0000   0.0000   0.0000   0.0000
     0.0000

          k = 0.3333-0.5000-0.5000 (  1000 PWs)   bands (ev):

  -116.1895 -70.3768 -70.3768 -70.3752  -6.8292   2.3554   2.3554   2.4161
     3.1037   3.2608   6.7032   6.7032   7.5664  12.0479  14.7129  14.7129
    18.1421

     occupation numbers 
     1.0000   1.0000   1.0000   1.0000   1.0000   1.0000   1.0000   1.0000
     1.0000   1.0000   1.0000   1.0000   1.0000   0.0000   0.0000   0.0000
     0.0000

          k = 0.4167 0.4167 0.4167 (  1003 PWs)   bands (ev):

  -116.1895 -70.3765 -70.3764 -70.3764  -6.8065   2.2989   2.2989   2.4182
     3.1987   3.1987   6.7147   7.2094   7.2094  12.6113  14.3980  14.3980
    17.5425

     occupation numbers 
     1.0000   1.0000   1.0000   1.0000   1.0000   1.0000   1.0000   1.0000
     1.0000   1.0000   1.0000   1.0000   1.0000   0.0000   0.0000   0.0000
     0.0000

          k = 0.4167 0.4167-0.5000 (   996 PWs)   bands (ev):

  -116.1895 -70.3767 -70.3764 -70.3762  -6.7732   2.2671   2.2892   2.3507
     3.2001   3.2399   6.9546   7.0557   7.3674  12.7718  14.1718  14.2990
    17.0138

     occupation numbers 
     1.0000   1.0000   1.0000   1.0000   1.0000   1.0000   1.0000   1.0000
     1.0000   1.0000   1.0000   1.0000   1.0000   0.0000   0.0000   0.0000
     0.0000

          k = 0.4167-0.5000-0.5000 (   992 PWs)   bands (ev):

  -116.1895 -70.3766 -70.3766 -70.3764  -6.7400   2.2578   2.2578   2.2774
     3.2206   3.2627   7.1336   7.1336   7.3712  13.0325  14.0899  14.0899
    16.3071

     occupation numbers 
     1.0000   1.0000   1.0000   1.0000   1.0000   1.0000   1.0000   1.0000
     1.0000   1.0000   1.0000   1.0000   1.0000   0.0000   0.0000   0.0000
     0.0000

          k =-0.5000-0.5000-0.5000 (   968 PWs)   bands (ev):

  -116.1894 -70.3765 -70.3765 -70.3765  -6.7065   2.2244   2.2244   2.2244
     3.2635   3.2635   7.3041   7.3041   7.3041  13.8486  13.8486  13.8486
    15.2019

     occupation numbers 
     1.0000   1.0000   1.0000   1.0000   1.0000   1.0000   1.0000   1.0000
     1.0000   1.0000   1.0000   1.0000   1.0000   0.0000   0.0000   0.0000
     0.0000

     the Fermi energy is     8.6736 ev

!    total energy              =    -503.14735595 Ry
     estimated scf accuracy    <          1.3E-09 Ry
     smearing contrib. (-TS)   =       0.00123119 Ry
     internal energy E=F+TS    =    -503.14858713 Ry

     The total energy is F=E-TS. E is the sum of the following terms:
     one-electron contribution =    -387.99828095 Ry
     hartree contribution      =     204.06396439 Ry
     xc contribution           =     -49.47009912 Ry
     ewald contribution        =    -260.20624399 Ry
     one-center paw contrib.   =      -9.53792746 Ry
      -> PAW hartree energy AE =      24.45150546 Ry
      -> PAW hartree energy PS =     -24.34508216 Ry
      -> PAW xc energy AE      =     -16.41117669 Ry
      -> PAW xc energy PS      =       6.76682594 Ry
      -> total E_H with PAW    =     204.17038769 Ry
      -> total E_XC with PAW   =     -59.11444988 Ry

     convergence has been achieved in   9 iterations

     Forces acting on atoms (cartesian axes, Ry/au):

     atom    1 type  2   force =     0.00000000    0.00000000    0.00000000
     atom    2 type  1   force =     0.00000000    0.00000000    0.00000000
     The non-local contrib.  to forces
     atom    1 type  2   force =     0.00000000    0.00000000    0.00000000
     atom    2 type  1   force =     0.00000000    0.00000000    0.00000000
     The ionic contribution  to forces
     atom    1 type  2   force =    -0.00000000   -0.00000000   -0.00000000
     atom    2 type  1   force =     0.00000000    0.00000000    0.00000000
     The local contribution  to forces
     atom    1 type  2   force =     0.00000000    0.00000000    0.00000000
     atom    2 type  1   force =     0.00000000    0.00000000    0.00000000
     The core correction contribution to forces
     atom    1 type  2   force =     0.00000000    0.00000000    0.00000000
     atom    2 type  1   force =     0.00000000    0.00000000    0.00000000
     The Hubbard contrib.    to forces
     atom    1 type  2   force =     0.00000000    0.00000000    0.00000000
     atom    2 type  1   force =     0.00000000    0.00000000    0.00000000
     The SCF correction term to forces
     atom    1 type  2   force =    -0.00000000   -0.00000000    0.00000000
     atom    2 type  1   force =    -0.00000000    0.00000000   -0.00000000

     Total force =     0.000000     Total SCF correction =     0.000000


     Computing stress (Cartesian axis) and pressure

          total   stress  (Ry/bohr**3)                   (kbar)     P=     -223.23
  -0.00151751   0.00000000   0.00000000         -223.23        0.00        0.00
   0.00000000  -0.00151751   0.00000000            0.00     -223.23        0.00
   0.00000000   0.00000000  -0.00151751            0.00        0.00     -223.23

     kinetic stress (kbar)  33404.60      0.00      0.00
                                0.00  33404.60      0.00
                                0.00      0.00  33404.60

     local   stress (kbar)  -2227.12     -0.00     -0.00
                               -0.00  -2227.12      0.00
                               -0.00      0.00  -2227.12

     nonloc. stress (kbar)   -789.88      0.00      0.00
                                0.00   -789.88      0.00
                                0.00      0.00   -789.88

     hartree stress (kbar)  60346.13      0.00      0.00
                                0.00  60346.13     -0.00
                                0.00     -0.00  60346.13

     exc-cor stress (kbar) -13632.21      0.00     -0.00
                                0.00 -13632.21      0.00
                               -0.00      0.00 -13632.21

     corecor stress (kbar)   -376.15      0.00      0.00
                                0.00   -376.15     -0.00
                                0.00     -0.00   -376.15

     ewald   stress (kbar) -76948.61     -0.00     -0.00
                               -0.00 -76948.61      0.00
                               -0.00      0.00 -76948.61

     hubbard stress (kbar)      0.00      0.00      0.00
                                0.00      0.00      0.00
                                0.00      0.00      0.00

     DFT-D   stress (kbar)      0.00      0.00      0.00
                                0.00      0.00      0.00
                                0.00      0.00      0.00

     XDM     stress (kbar)      0.00      0.00      0.00
                                0.00      0.00      0.00
                                0.00      0.00      0.00

     dft-nl  stress (kbar)      0.00      0.00      0.00
                                0.00      0.00      0.00
                                0.00      0.00      0.00

     TS-vdW  stress (kbar)      0.00      0.00      0.00
                                0.00      0.00      0.00
                                0.00      0.00      0.00

     MDB     stress (kbar)      0.00      0.00      0.00
                                0.00      0.00      0.00
                                0.00      0.00      0.00

     3D-RISM stress (kbar)      0.00      0.00      0.00
                                0.00      0.00      0.00
                                0.00      0.00      0.00


     Writing all to output data dir ./temp_cubic/aiida.save/ :
     XML data file, charge density, pseudopotentials, collected wavefunctions

     init_run     :    455.22s CPU     19.86s WALL (       1 calls)
     electrons    :   1131.34s CPU     48.51s WALL (       1 calls)
     forces       :     11.53s CPU      0.52s WALL (       1 calls)
     stress       :     49.61s CPU      2.36s WALL (       1 calls)

     Called by init_run:
     wfcinit      :    448.57s CPU     19.34s WALL (       1 calls)
     wfcinit:atom :      8.28s CPU      0.34s WALL (      84 calls)
     wfcinit:wfcr :    432.23s CPU     18.68s WALL (      84 calls)
     potinit      :      2.85s CPU      0.14s WALL (       1 calls)
     hinit0       :      1.75s CPU      0.25s WALL (       1 calls)

     Called by electrons:
     c_bands      :    997.71s CPU     42.26s WALL (       9 calls)
     sum_band     :    122.25s CPU      5.53s WALL (       9 calls)
     v_of_rho     :      1.87s CPU      0.11s WALL (      10 calls)
     v_h          :      0.74s CPU      0.03s WALL (      10 calls)
     v_xc         :      1.37s CPU      0.10s WALL (      12 calls)
     newd         :      6.79s CPU      0.52s WALL (      10 calls)
     PAW_pot      :      4.46s CPU      0.18s WALL (      10 calls)
     mix_rho      :      0.55s CPU      0.02s WALL (       9 calls)

     Called by c_bands:
     init_us_2    :     18.82s CPU      0.84s WALL (    1764 calls)
     cegterg      :    955.35s CPU     40.25s WALL (     756 calls)

     Called by sum_band:
     sum_band:wei :      0.47s CPU      0.02s WALL (       9 calls)
     sum_band:loo :    117.95s CPU      4.94s WALL (       9 calls)
     sum_band:buf :      0.67s CPU      0.02s WALL (     756 calls)
     sum_band:ini :      5.72s CPU      0.18s WALL (     756 calls)
     sum_band:cal :     14.01s CPU      0.53s WALL (     756 calls)
     sum_band:bec :      2.47s CPU      0.16s WALL (     756 calls)
     addusdens    :      3.72s CPU      0.52s WALL (       9 calls)
                                        0.00s GPU  (       9 calls)
     addusd:skk   :      0.00s CPU      0.00s WALL (      18 calls)
                                        0.00s GPU  (      18 calls)

     Called by *egterg:
     cdiaghg      :     17.06s CPU      0.69s WALL (    2488 calls)
     cegterg:over :     37.54s CPU      1.73s WALL (    1732 calls)
     cegterg:upda :     35.91s CPU      1.60s WALL (    1732 calls)
     cegterg:last :     81.49s CPU      2.72s WALL (    1509 calls)
     h_psi        :   1115.73s CPU     47.95s WALL (    2572 calls)
     s_psi        :     33.12s CPU      1.41s WALL (    2572 calls)
     g_psi        :     14.30s CPU      0.63s WALL (    1732 calls)

     Called by h_psi:
     h_psi:calbec :     28.65s CPU      1.31s WALL (    2572 calls)
     vloc_psi     :   1028.52s CPU     44.25s WALL (    2572 calls)
     add_vuspsi   :     34.97s CPU      1.41s WALL (    2572 calls)

     General routines
     calbec       :     51.58s CPU      2.13s WALL (    3748 calls)
     fft          :      0.73s CPU      0.07s WALL (     153 calls)
     ffts         :      0.00s CPU      0.00s WALL (      19 calls)
     fftw         :    278.96s CPU     11.93s WALL (   74998 calls)
     interpolate  :      0.23s CPU      0.01s WALL (      10 calls)

     Parallel routines

     PAW routines
     PAW_pot      :      4.46s CPU      0.18s WALL (      10 calls)
     PAW_symme    :      0.00s CPU      0.00s WALL (      19 calls)

     PWSCF        :  27m40.04s CPU   1m12.87s WALL


   This run was terminated on:  13:41:47   8Jun2024            

=------------------------------------------------------------------------------=
   JOB DONE.
=------------------------------------------------------------------------------=
