
     Program PWSCF v.7.3.1 starts on  7Jun2024 at 21:11: 6 

     This program is part of the open-source Quantum ESPRESSO suite
     for quantum simulation of materials; please cite
         "P. Giannozzi et al., J. Phys.:Condens. Matter 21 395502 (2009);
         "P. Giannozzi et al., J. Phys.:Condens. Matter 29 465901 (2017);
         "P. Giannozzi et al., J. Chem. Phys. 152 154105 (2020);
          URL http://www.quantum-espresso.org", 
     in publications or presentations arising from this work. More details at
     http://www.quantum-espresso.org/quote

     Parallel version (MPI & OpenMP), running on      24 processor cores
     Number of MPI processes:                 1
     Threads/MPI process:                    24

     MPI processes distributed on     1 nodes
     4773 MiB available memory on the printing compute node when the environment starts

     Waiting for input...
     Reading input from standard input

     Current dimensions of program PWSCF are:
     Max number of different atomic species (ntypx) = 10
     Max number of k-points (npk) =  40000
     Max angular momentum in pseudopotentials (lmaxx) =  4
     file O.pbe-n-kjpaw_psl.0.1.UPF: wavefunction(s)  2P renormalized
     Message from routine setup:
     using ibrav=0 with symmetry is DISCOURAGED, use correct ibrav instead

     Subspace diagonalization in iterative solution of the eigenvalue problem:
     a serial algorithm will be used


     G-vector sticks info
     --------------------
     sticks:   dense  smooth     PW     G-vecs:    dense   smooth      PW
     Sum         797     405    137                17077     6043    1189

     Using Slab Decomposition



     bravais-lattice index     =            0
     lattice parameter (alat)  =       5.0360  a.u.
     unit-cell volume          =     127.7196 (a.u.)^3
     number of atoms/cell      =            2
     number of atomic types    =            2
     number of electrons       =        26.00
     number of Kohn-Sham states=           17
     kinetic-energy cutoff     =      50.0000  Ry
     charge density cutoff     =     400.0000  Ry
     scf convergence threshold =      1.0E-08
     mixing beta               =       0.4000
     number of iterations used =            8  plain     mixing
     Exchange-correlation= SLA  PW   PBE  PBE
                           (   1   4   3   4   0   0   0)

     celldm(1)=   5.036002  celldm(2)=   0.000000  celldm(3)=   0.000000
     celldm(4)=   0.000000  celldm(5)=   0.000000  celldm(6)=   0.000000

     crystal axes: (cart. coord. in units of alat)
               a(1) = (   1.000000   0.000000   0.000000 )  
               a(2) = (   0.000000   1.000000   0.000000 )  
               a(3) = (   0.000000   0.000000   1.000000 )  

     reciprocal axes: (cart. coord. in units 2 pi/alat)
               b(1) = (  1.000000  0.000000  0.000000 )  
               b(2) = (  0.000000  1.000000  0.000000 )  
               b(3) = (  0.000000  0.000000  1.000000 )  


     PseudoPot. # 1 for O  read from file:
     ../SSSP_1.3.0_PBE_efficiency/O.pbe-n-kjpaw_psl.0.1.UPF
     MD5 check sum: 0234752ac141de4415c5fc33072bef88
     Pseudo is Projector augmented-wave + core cor, Zval =  6.0
     Generated using "atomic" code by A. Dal Corso  v.5.0.99 svn rev. 10869
     Shape of augmentation charge: BESSEL
     Using radial grid of 1095 points,  4 beta functions with: 
                l(1) =   0
                l(2) =   0
                l(3) =   1
                l(4) =   1
     Q(r) pseudized with 0 coefficients 


     PseudoPot. # 2 for Zn read from file:
     ../SSSP_1.3.0_PBE_efficiency/Zn_pbe_v1.uspp.F.UPF
     MD5 check sum: df62231357ef9e81f77b2b3087fa5675
     Pseudo is Ultrasoft, Zval = 20.0
     Generated by new atomic code, or converted to UPF format
     Using radial grid of  943 points,  6 beta functions with: 
                l(1) =   0
                l(2) =   0
                l(3) =   1
                l(4) =   1
                l(5) =   2
                l(6) =   2
     Q(r) pseudized with  8 coefficients,  rinner =    1.100   1.100   1.100
                                                       1.100   1.100

     atomic species   valence    mass     pseudopotential
     O                 6.00    15.99940     O ( 1.00)
     Zn               20.00    65.38000     Zn( 1.00)

     48 Sym. Ops., with inversion, found


                                    s                        frac. trans.

      isym =  1     identity                                     

 cryst.   s( 1) = (     1          0          0      )
                  (     0          1          0      )
                  (     0          0          1      )

 cart.    s( 1) = (  1.0000000  0.0000000  0.0000000 )
                  (  0.0000000  1.0000000  0.0000000 )
                  (  0.0000000  0.0000000  1.0000000 )


      isym =  2     180 deg rotation - cart. axis [0,0,1]        

 cryst.   s( 2) = (    -1          0          0      )
                  (     0         -1          0      )
                  (     0          0          1      )

 cart.    s( 2) = ( -1.0000000  0.0000000  0.0000000 )
                  (  0.0000000 -1.0000000  0.0000000 )
                  (  0.0000000  0.0000000  1.0000000 )


      isym =  3     180 deg rotation - cart. axis [0,1,0]        

 cryst.   s( 3) = (    -1          0          0      )
                  (     0          1          0      )
                  (     0          0         -1      )

 cart.    s( 3) = ( -1.0000000  0.0000000  0.0000000 )
                  (  0.0000000  1.0000000  0.0000000 )
                  (  0.0000000  0.0000000 -1.0000000 )


      isym =  4     180 deg rotation - cart. axis [1,0,0]        

 cryst.   s( 4) = (     1          0          0      )
                  (     0         -1          0      )
                  (     0          0         -1      )

 cart.    s( 4) = (  1.0000000  0.0000000  0.0000000 )
                  (  0.0000000 -1.0000000  0.0000000 )
                  (  0.0000000  0.0000000 -1.0000000 )


      isym =  5     180 deg rotation - cart. axis [1,1,0]        

 cryst.   s( 5) = (     0          1          0      )
                  (     1          0          0      )
                  (     0          0         -1      )

 cart.    s( 5) = (  0.0000000  1.0000000  0.0000000 )
                  (  1.0000000  0.0000000  0.0000000 )
                  (  0.0000000  0.0000000 -1.0000000 )


      isym =  6     180 deg rotation - cart. axis [1,-1,0]       

 cryst.   s( 6) = (     0         -1          0      )
                  (    -1          0          0      )
                  (     0          0         -1      )

 cart.    s( 6) = (  0.0000000 -1.0000000  0.0000000 )
                  ( -1.0000000  0.0000000  0.0000000 )
                  (  0.0000000  0.0000000 -1.0000000 )


      isym =  7      90 deg rotation - cart. axis [0,0,-1]       

 cryst.   s( 7) = (     0         -1          0      )
                  (     1          0          0      )
                  (     0          0          1      )

 cart.    s( 7) = (  0.0000000  1.0000000  0.0000000 )
                  ( -1.0000000  0.0000000  0.0000000 )
                  (  0.0000000  0.0000000  1.0000000 )


      isym =  8      90 deg rotation - cart. axis [0,0,1]        

 cryst.   s( 8) = (     0          1          0      )
                  (    -1          0          0      )
                  (     0          0          1      )

 cart.    s( 8) = (  0.0000000 -1.0000000  0.0000000 )
                  (  1.0000000  0.0000000  0.0000000 )
                  (  0.0000000  0.0000000  1.0000000 )


      isym =  9     180 deg rotation - cart. axis [1,0,1]        

 cryst.   s( 9) = (     0          0          1      )
                  (     0         -1          0      )
                  (     1          0          0      )

 cart.    s( 9) = (  0.0000000  0.0000000  1.0000000 )
                  (  0.0000000 -1.0000000  0.0000000 )
                  (  1.0000000  0.0000000  0.0000000 )


      isym = 10     180 deg rotation - cart. axis [-1,0,1]       

 cryst.   s(10) = (     0          0         -1      )
                  (     0         -1          0      )
                  (    -1          0          0      )

 cart.    s(10) = (  0.0000000  0.0000000 -1.0000000 )
                  (  0.0000000 -1.0000000  0.0000000 )
                  ( -1.0000000  0.0000000  0.0000000 )


      isym = 11      90 deg rotation - cart. axis [0,1,0]        

 cryst.   s(11) = (     0          0         -1      )
                  (     0          1          0      )
                  (     1          0          0      )

 cart.    s(11) = (  0.0000000  0.0000000  1.0000000 )
                  (  0.0000000  1.0000000  0.0000000 )
                  ( -1.0000000  0.0000000  0.0000000 )


      isym = 12      90 deg rotation - cart. axis [0,-1,0]       

 cryst.   s(12) = (     0          0          1      )
                  (     0          1          0      )
                  (    -1          0          0      )

 cart.    s(12) = (  0.0000000  0.0000000 -1.0000000 )
                  (  0.0000000  1.0000000  0.0000000 )
                  (  1.0000000  0.0000000  0.0000000 )


      isym = 13     180 deg rotation - cart. axis [0,1,1]        

 cryst.   s(13) = (    -1          0          0      )
                  (     0          0          1      )
                  (     0          1          0      )

 cart.    s(13) = ( -1.0000000  0.0000000  0.0000000 )
                  (  0.0000000  0.0000000  1.0000000 )
                  (  0.0000000  1.0000000  0.0000000 )


      isym = 14     180 deg rotation - cart. axis [0,1,-1]       

 cryst.   s(14) = (    -1          0          0      )
                  (     0          0         -1      )
                  (     0         -1          0      )

 cart.    s(14) = ( -1.0000000  0.0000000  0.0000000 )
                  (  0.0000000  0.0000000 -1.0000000 )
                  (  0.0000000 -1.0000000  0.0000000 )


      isym = 15      90 deg rotation - cart. axis [-1,0,0]       

 cryst.   s(15) = (     1          0          0      )
                  (     0          0         -1      )
                  (     0          1          0      )

 cart.    s(15) = (  1.0000000  0.0000000  0.0000000 )
                  (  0.0000000  0.0000000  1.0000000 )
                  (  0.0000000 -1.0000000  0.0000000 )


      isym = 16      90 deg rotation - cart. axis [1,0,0]        

 cryst.   s(16) = (     1          0          0      )
                  (     0          0          1      )
                  (     0         -1          0      )

 cart.    s(16) = (  1.0000000  0.0000000  0.0000000 )
                  (  0.0000000  0.0000000 -1.0000000 )
                  (  0.0000000  1.0000000  0.0000000 )


      isym = 17     120 deg rotation - cart. axis [-1,-1,-1]     

 cryst.   s(17) = (     0          0          1      )
                  (     1          0          0      )
                  (     0          1          0      )

 cart.    s(17) = (  0.0000000  1.0000000  0.0000000 )
                  (  0.0000000  0.0000000  1.0000000 )
                  (  1.0000000  0.0000000  0.0000000 )


      isym = 18     120 deg rotation - cart. axis [-1,1,1]       

 cryst.   s(18) = (     0          0         -1      )
                  (    -1          0          0      )
                  (     0          1          0      )

 cart.    s(18) = (  0.0000000 -1.0000000  0.0000000 )
                  (  0.0000000  0.0000000  1.0000000 )
                  ( -1.0000000  0.0000000  0.0000000 )


      isym = 19     120 deg rotation - cart. axis [1,1,-1]       

 cryst.   s(19) = (     0          0         -1      )
                  (     1          0          0      )
                  (     0         -1          0      )

 cart.    s(19) = (  0.0000000  1.0000000  0.0000000 )
                  (  0.0000000  0.0000000 -1.0000000 )
                  ( -1.0000000  0.0000000  0.0000000 )


      isym = 20     120 deg rotation - cart. axis [1,-1,1]       

 cryst.   s(20) = (     0          0          1      )
                  (    -1          0          0      )
                  (     0         -1          0      )

 cart.    s(20) = (  0.0000000 -1.0000000  0.0000000 )
                  (  0.0000000  0.0000000 -1.0000000 )
                  (  1.0000000  0.0000000  0.0000000 )


      isym = 21     120 deg rotation - cart. axis [1,1,1]        

 cryst.   s(21) = (     0          1          0      )
                  (     0          0          1      )
                  (     1          0          0      )

 cart.    s(21) = (  0.0000000  0.0000000  1.0000000 )
                  (  1.0000000  0.0000000  0.0000000 )
                  (  0.0000000  1.0000000  0.0000000 )


      isym = 22     120 deg rotation - cart. axis [-1,1,-1]      

 cryst.   s(22) = (     0         -1          0      )
                  (     0          0         -1      )
                  (     1          0          0      )

 cart.    s(22) = (  0.0000000  0.0000000  1.0000000 )
                  ( -1.0000000  0.0000000  0.0000000 )
                  (  0.0000000 -1.0000000  0.0000000 )


      isym = 23     120 deg rotation - cart. axis [1,-1,-1]      

 cryst.   s(23) = (     0         -1          0      )
                  (     0          0          1      )
                  (    -1          0          0      )

 cart.    s(23) = (  0.0000000  0.0000000 -1.0000000 )
                  ( -1.0000000  0.0000000  0.0000000 )
                  (  0.0000000  1.0000000  0.0000000 )


      isym = 24     120 deg rotation - cart. axis [-1,-1,1]      

 cryst.   s(24) = (     0          1          0      )
                  (     0          0         -1      )
                  (    -1          0          0      )

 cart.    s(24) = (  0.0000000  0.0000000 -1.0000000 )
                  (  1.0000000  0.0000000  0.0000000 )
                  (  0.0000000 -1.0000000  0.0000000 )


      isym = 25     inversion                                    

 cryst.   s(25) = (    -1          0          0      )
                  (     0         -1          0      )
                  (     0          0         -1      )

 cart.    s(25) = ( -1.0000000  0.0000000  0.0000000 )
                  (  0.0000000 -1.0000000  0.0000000 )
                  (  0.0000000  0.0000000 -1.0000000 )


      isym = 26     inv. 180 deg rotation - cart. axis [0,0,1]   

 cryst.   s(26) = (     1          0          0      )
                  (     0          1          0      )
                  (     0          0         -1      )

 cart.    s(26) = (  1.0000000  0.0000000  0.0000000 )
                  (  0.0000000  1.0000000  0.0000000 )
                  (  0.0000000  0.0000000 -1.0000000 )


      isym = 27     inv. 180 deg rotation - cart. axis [0,1,0]   

 cryst.   s(27) = (     1          0          0      )
                  (     0         -1          0      )
                  (     0          0          1      )

 cart.    s(27) = (  1.0000000  0.0000000  0.0000000 )
                  (  0.0000000 -1.0000000  0.0000000 )
                  (  0.0000000  0.0000000  1.0000000 )


      isym = 28     inv. 180 deg rotation - cart. axis [1,0,0]   

 cryst.   s(28) = (    -1          0          0      )
                  (     0          1          0      )
                  (     0          0          1      )

 cart.    s(28) = ( -1.0000000  0.0000000  0.0000000 )
                  (  0.0000000  1.0000000  0.0000000 )
                  (  0.0000000  0.0000000  1.0000000 )


      isym = 29     inv. 180 deg rotation - cart. axis [1,1,0]   

 cryst.   s(29) = (     0         -1          0      )
                  (    -1          0          0      )
                  (     0          0          1      )

 cart.    s(29) = (  0.0000000 -1.0000000  0.0000000 )
                  ( -1.0000000  0.0000000  0.0000000 )
                  (  0.0000000  0.0000000  1.0000000 )


      isym = 30     inv. 180 deg rotation - cart. axis [1,-1,0]  

 cryst.   s(30) = (     0          1          0      )
                  (     1          0          0      )
                  (     0          0          1      )

 cart.    s(30) = (  0.0000000  1.0000000  0.0000000 )
                  (  1.0000000  0.0000000  0.0000000 )
                  (  0.0000000  0.0000000  1.0000000 )


      isym = 31     inv.  90 deg rotation - cart. axis [0,0,-1]  

 cryst.   s(31) = (     0          1          0      )
                  (    -1          0          0      )
                  (     0          0         -1      )

 cart.    s(31) = (  0.0000000 -1.0000000  0.0000000 )
                  (  1.0000000  0.0000000  0.0000000 )
                  (  0.0000000  0.0000000 -1.0000000 )


      isym = 32     inv.  90 deg rotation - cart. axis [0,0,1]   

 cryst.   s(32) = (     0         -1          0      )
                  (     1          0          0      )
                  (     0          0         -1      )

 cart.    s(32) = (  0.0000000  1.0000000  0.0000000 )
                  ( -1.0000000  0.0000000  0.0000000 )
                  (  0.0000000  0.0000000 -1.0000000 )


      isym = 33     inv. 180 deg rotation - cart. axis [1,0,1]   

 cryst.   s(33) = (     0          0         -1      )
                  (     0          1          0      )
                  (    -1          0          0      )

 cart.    s(33) = (  0.0000000  0.0000000 -1.0000000 )
                  (  0.0000000  1.0000000  0.0000000 )
                  ( -1.0000000  0.0000000  0.0000000 )


      isym = 34     inv. 180 deg rotation - cart. axis [-1,0,1]  

 cryst.   s(34) = (     0          0          1      )
                  (     0          1          0      )
                  (     1          0          0      )

 cart.    s(34) = (  0.0000000  0.0000000  1.0000000 )
                  (  0.0000000  1.0000000  0.0000000 )
                  (  1.0000000  0.0000000  0.0000000 )


      isym = 35     inv.  90 deg rotation - cart. axis [0,1,0]   

 cryst.   s(35) = (     0          0          1      )
                  (     0         -1          0      )
                  (    -1          0          0      )

 cart.    s(35) = (  0.0000000  0.0000000 -1.0000000 )
                  (  0.0000000 -1.0000000  0.0000000 )
                  (  1.0000000  0.0000000  0.0000000 )


      isym = 36     inv.  90 deg rotation - cart. axis [0,-1,0]  

 cryst.   s(36) = (     0          0         -1      )
                  (     0         -1          0      )
                  (     1          0          0      )

 cart.    s(36) = (  0.0000000  0.0000000  1.0000000 )
                  (  0.0000000 -1.0000000  0.0000000 )
                  ( -1.0000000  0.0000000  0.0000000 )


      isym = 37     inv. 180 deg rotation - cart. axis [0,1,1]   

 cryst.   s(37) = (     1          0          0      )
                  (     0          0         -1      )
                  (     0         -1          0      )

 cart.    s(37) = (  1.0000000  0.0000000  0.0000000 )
                  (  0.0000000  0.0000000 -1.0000000 )
                  (  0.0000000 -1.0000000  0.0000000 )


      isym = 38     inv. 180 deg rotation - cart. axis [0,1,-1]  

 cryst.   s(38) = (     1          0          0      )
                  (     0          0          1      )
                  (     0          1          0      )

 cart.    s(38) = (  1.0000000  0.0000000  0.0000000 )
                  (  0.0000000  0.0000000  1.0000000 )
                  (  0.0000000  1.0000000  0.0000000 )


      isym = 39     inv.  90 deg rotation - cart. axis [-1,0,0]  

 cryst.   s(39) = (    -1          0          0      )
                  (     0          0          1      )
                  (     0         -1          0      )

 cart.    s(39) = ( -1.0000000  0.0000000  0.0000000 )
                  (  0.0000000  0.0000000 -1.0000000 )
                  (  0.0000000  1.0000000  0.0000000 )


      isym = 40     inv.  90 deg rotation - cart. axis [1,0,0]   

 cryst.   s(40) = (    -1          0          0      )
                  (     0          0         -1      )
                  (     0          1          0      )

 cart.    s(40) = ( -1.0000000  0.0000000  0.0000000 )
                  (  0.0000000  0.0000000  1.0000000 )
                  (  0.0000000 -1.0000000  0.0000000 )


      isym = 41     inv. 120 deg rotation - cart. axis [-1,-1,-1]

 cryst.   s(41) = (     0          0         -1      )
                  (    -1          0          0      )
                  (     0         -1          0      )

 cart.    s(41) = (  0.0000000 -1.0000000  0.0000000 )
                  (  0.0000000  0.0000000 -1.0000000 )
                  ( -1.0000000  0.0000000  0.0000000 )


      isym = 42     inv. 120 deg rotation - cart. axis [-1,1,1]  

 cryst.   s(42) = (     0          0          1      )
                  (     1          0          0      )
                  (     0         -1          0      )

 cart.    s(42) = (  0.0000000  1.0000000  0.0000000 )
                  (  0.0000000  0.0000000 -1.0000000 )
                  (  1.0000000  0.0000000  0.0000000 )


      isym = 43     inv. 120 deg rotation - cart. axis [1,1,-1]  

 cryst.   s(43) = (     0          0          1      )
                  (    -1          0          0      )
                  (     0          1          0      )

 cart.    s(43) = (  0.0000000 -1.0000000  0.0000000 )
                  (  0.0000000  0.0000000  1.0000000 )
                  (  1.0000000  0.0000000  0.0000000 )


      isym = 44     inv. 120 deg rotation - cart. axis [1,-1,1]  

 cryst.   s(44) = (     0          0         -1      )
                  (     1          0          0      )
                  (     0          1          0      )

 cart.    s(44) = (  0.0000000  1.0000000  0.0000000 )
                  (  0.0000000  0.0000000  1.0000000 )
                  ( -1.0000000  0.0000000  0.0000000 )


      isym = 45     inv. 120 deg rotation - cart. axis [1,1,1]   

 cryst.   s(45) = (     0         -1          0      )
                  (     0          0         -1      )
                  (    -1          0          0      )

 cart.    s(45) = (  0.0000000  0.0000000 -1.0000000 )
                  ( -1.0000000  0.0000000  0.0000000 )
                  (  0.0000000 -1.0000000  0.0000000 )


      isym = 46     inv. 120 deg rotation - cart. axis [-1,1,-1] 

 cryst.   s(46) = (     0          1          0      )
                  (     0          0          1      )
                  (    -1          0          0      )

 cart.    s(46) = (  0.0000000  0.0000000 -1.0000000 )
                  (  1.0000000  0.0000000  0.0000000 )
                  (  0.0000000  1.0000000  0.0000000 )


      isym = 47     inv. 120 deg rotation - cart. axis [1,-1,-1] 

 cryst.   s(47) = (     0          1          0      )
                  (     0          0         -1      )
                  (     1          0          0      )

 cart.    s(47) = (  0.0000000  0.0000000  1.0000000 )
                  (  1.0000000  0.0000000  0.0000000 )
                  (  0.0000000 -1.0000000  0.0000000 )


      isym = 48     inv. 120 deg rotation - cart. axis [-1,-1,1] 

 cryst.   s(48) = (     0         -1          0      )
                  (     0          0          1      )
                  (     1          0          0      )

 cart.    s(48) = (  0.0000000  0.0000000  1.0000000 )
                  ( -1.0000000  0.0000000  0.0000000 )
                  (  0.0000000  1.0000000  0.0000000 )


   Cartesian axes

     site n.     atom                  positions (alat units)
         1        Zn     tau(   1) = (   0.0000000   0.0000000   0.0000000  )
         2        O      tau(   2) = (   0.5000000   0.5000000   0.5000000  )

   Crystallographic axes

     site n.     atom                  positions (cryst. coord.)
         1        Zn     tau(   1) = (  0.0000000  0.0000000  0.0000000  )
         2        O      tau(   2) = (  0.5000000  0.5000000  0.5000000  )

     number of k points=    84  Marzari-Vanderbilt smearing, width (Ry)=  0.0147
                       cart. coord. in units 2pi/alat
        k(    1) = (   0.0000000   0.0000000   0.0000000), wk =   0.0011574
        k(    2) = (   0.0000000   0.0000000   0.0833333), wk =   0.0069444
        k(    3) = (   0.0000000   0.0000000   0.1666667), wk =   0.0069444
        k(    4) = (   0.0000000   0.0000000   0.2500000), wk =   0.0069444
        k(    5) = (   0.0000000   0.0000000   0.3333333), wk =   0.0069444
        k(    6) = (   0.0000000   0.0000000   0.4166667), wk =   0.0069444
        k(    7) = (   0.0000000   0.0000000  -0.5000000), wk =   0.0034722
        k(    8) = (   0.0000000   0.0833333   0.0833333), wk =   0.0138889
        k(    9) = (   0.0000000   0.0833333   0.1666667), wk =   0.0277778
        k(   10) = (   0.0000000   0.0833333   0.2500000), wk =   0.0277778
        k(   11) = (   0.0000000   0.0833333   0.3333333), wk =   0.0277778
        k(   12) = (   0.0000000   0.0833333   0.4166667), wk =   0.0277778
        k(   13) = (   0.0000000   0.0833333  -0.5000000), wk =   0.0138889
        k(   14) = (   0.0000000   0.1666667   0.1666667), wk =   0.0138889
        k(   15) = (   0.0000000   0.1666667   0.2500000), wk =   0.0277778
        k(   16) = (   0.0000000   0.1666667   0.3333333), wk =   0.0277778
        k(   17) = (   0.0000000   0.1666667   0.4166667), wk =   0.0277778
        k(   18) = (   0.0000000   0.1666667  -0.5000000), wk =   0.0138889
        k(   19) = (   0.0000000   0.2500000   0.2500000), wk =   0.0138889
        k(   20) = (   0.0000000   0.2500000   0.3333333), wk =   0.0277778
        k(   21) = (   0.0000000   0.2500000   0.4166667), wk =   0.0277778
        k(   22) = (   0.0000000   0.2500000  -0.5000000), wk =   0.0138889
        k(   23) = (   0.0000000   0.3333333   0.3333333), wk =   0.0138889
        k(   24) = (   0.0000000   0.3333333   0.4166667), wk =   0.0277778
        k(   25) = (   0.0000000   0.3333333  -0.5000000), wk =   0.0138889
        k(   26) = (   0.0000000   0.4166667   0.4166667), wk =   0.0138889
        k(   27) = (   0.0000000   0.4166667  -0.5000000), wk =   0.0138889
        k(   28) = (   0.0000000  -0.5000000  -0.5000000), wk =   0.0034722
        k(   29) = (   0.0833333   0.0833333   0.0833333), wk =   0.0092593
        k(   30) = (   0.0833333   0.0833333   0.1666667), wk =   0.0277778
        k(   31) = (   0.0833333   0.0833333   0.2500000), wk =   0.0277778
        k(   32) = (   0.0833333   0.0833333   0.3333333), wk =   0.0277778
        k(   33) = (   0.0833333   0.0833333   0.4166667), wk =   0.0277778
        k(   34) = (   0.0833333   0.0833333  -0.5000000), wk =   0.0138889
        k(   35) = (   0.0833333   0.1666667   0.1666667), wk =   0.0277778
        k(   36) = (   0.0833333   0.1666667   0.2500000), wk =   0.0555556
        k(   37) = (   0.0833333   0.1666667   0.3333333), wk =   0.0555556
        k(   38) = (   0.0833333   0.1666667   0.4166667), wk =   0.0555556
        k(   39) = (   0.0833333   0.1666667  -0.5000000), wk =   0.0277778
        k(   40) = (   0.0833333   0.2500000   0.2500000), wk =   0.0277778
        k(   41) = (   0.0833333   0.2500000   0.3333333), wk =   0.0555556
        k(   42) = (   0.0833333   0.2500000   0.4166667), wk =   0.0555556
        k(   43) = (   0.0833333   0.2500000  -0.5000000), wk =   0.0277778
        k(   44) = (   0.0833333   0.3333333   0.3333333), wk =   0.0277778
        k(   45) = (   0.0833333   0.3333333   0.4166667), wk =   0.0555556
        k(   46) = (   0.0833333   0.3333333  -0.5000000), wk =   0.0277778
        k(   47) = (   0.0833333   0.4166667   0.4166667), wk =   0.0277778
        k(   48) = (   0.0833333   0.4166667  -0.5000000), wk =   0.0277778
        k(   49) = (   0.0833333  -0.5000000  -0.5000000), wk =   0.0069444
        k(   50) = (   0.1666667   0.1666667   0.1666667), wk =   0.0092593
        k(   51) = (   0.1666667   0.1666667   0.2500000), wk =   0.0277778
        k(   52) = (   0.1666667   0.1666667   0.3333333), wk =   0.0277778
        k(   53) = (   0.1666667   0.1666667   0.4166667), wk =   0.0277778
        k(   54) = (   0.1666667   0.1666667  -0.5000000), wk =   0.0138889
        k(   55) = (   0.1666667   0.2500000   0.2500000), wk =   0.0277778
        k(   56) = (   0.1666667   0.2500000   0.3333333), wk =   0.0555556
        k(   57) = (   0.1666667   0.2500000   0.4166667), wk =   0.0555556
        k(   58) = (   0.1666667   0.2500000  -0.5000000), wk =   0.0277778
        k(   59) = (   0.1666667   0.3333333   0.3333333), wk =   0.0277778
        k(   60) = (   0.1666667   0.3333333   0.4166667), wk =   0.0555556
        k(   61) = (   0.1666667   0.3333333  -0.5000000), wk =   0.0277778
        k(   62) = (   0.1666667   0.4166667   0.4166667), wk =   0.0277778
        k(   63) = (   0.1666667   0.4166667  -0.5000000), wk =   0.0277778
        k(   64) = (   0.1666667  -0.5000000  -0.5000000), wk =   0.0069444
        k(   65) = (   0.2500000   0.2500000   0.2500000), wk =   0.0092593
        k(   66) = (   0.2500000   0.2500000   0.3333333), wk =   0.0277778
        k(   67) = (   0.2500000   0.2500000   0.4166667), wk =   0.0277778
        k(   68) = (   0.2500000   0.2500000  -0.5000000), wk =   0.0138889
        k(   69) = (   0.2500000   0.3333333   0.3333333), wk =   0.0277778
        k(   70) = (   0.2500000   0.3333333   0.4166667), wk =   0.0555556
        k(   71) = (   0.2500000   0.3333333  -0.5000000), wk =   0.0277778
        k(   72) = (   0.2500000   0.4166667   0.4166667), wk =   0.0277778
        k(   73) = (   0.2500000   0.4166667  -0.5000000), wk =   0.0277778
        k(   74) = (   0.2500000  -0.5000000  -0.5000000), wk =   0.0069444
        k(   75) = (   0.3333333   0.3333333   0.3333333), wk =   0.0092593
        k(   76) = (   0.3333333   0.3333333   0.4166667), wk =   0.0277778
        k(   77) = (   0.3333333   0.3333333  -0.5000000), wk =   0.0138889
        k(   78) = (   0.3333333   0.4166667   0.4166667), wk =   0.0277778
        k(   79) = (   0.3333333   0.4166667  -0.5000000), wk =   0.0277778
        k(   80) = (   0.3333333  -0.5000000  -0.5000000), wk =   0.0069444
        k(   81) = (   0.4166667   0.4166667   0.4166667), wk =   0.0092593
        k(   82) = (   0.4166667   0.4166667  -0.5000000), wk =   0.0138889
        k(   83) = (   0.4166667  -0.5000000  -0.5000000), wk =   0.0069444
        k(   84) = (  -0.5000000  -0.5000000  -0.5000000), wk =   0.0011574

                       cryst. coord.
        k(    1) = (   0.0000000   0.0000000   0.0000000), wk =   0.0011574
        k(    2) = (   0.0000000   0.0000000   0.0833333), wk =   0.0069444
        k(    3) = (   0.0000000   0.0000000   0.1666667), wk =   0.0069444
        k(    4) = (   0.0000000   0.0000000   0.2500000), wk =   0.0069444
        k(    5) = (   0.0000000   0.0000000   0.3333333), wk =   0.0069444
        k(    6) = (   0.0000000   0.0000000   0.4166667), wk =   0.0069444
        k(    7) = (   0.0000000   0.0000000  -0.5000000), wk =   0.0034722
        k(    8) = (   0.0000000   0.0833333   0.0833333), wk =   0.0138889
        k(    9) = (   0.0000000   0.0833333   0.1666667), wk =   0.0277778
        k(   10) = (   0.0000000   0.0833333   0.2500000), wk =   0.0277778
        k(   11) = (   0.0000000   0.0833333   0.3333333), wk =   0.0277778
        k(   12) = (   0.0000000   0.0833333   0.4166667), wk =   0.0277778
        k(   13) = (   0.0000000   0.0833333  -0.5000000), wk =   0.0138889
        k(   14) = (   0.0000000   0.1666667   0.1666667), wk =   0.0138889
        k(   15) = (   0.0000000   0.1666667   0.2500000), wk =   0.0277778
        k(   16) = (   0.0000000   0.1666667   0.3333333), wk =   0.0277778
        k(   17) = (   0.0000000   0.1666667   0.4166667), wk =   0.0277778
        k(   18) = (   0.0000000   0.1666667  -0.5000000), wk =   0.0138889
        k(   19) = (   0.0000000   0.2500000   0.2500000), wk =   0.0138889
        k(   20) = (   0.0000000   0.2500000   0.3333333), wk =   0.0277778
        k(   21) = (   0.0000000   0.2500000   0.4166667), wk =   0.0277778
        k(   22) = (   0.0000000   0.2500000  -0.5000000), wk =   0.0138889
        k(   23) = (   0.0000000   0.3333333   0.3333333), wk =   0.0138889
        k(   24) = (   0.0000000   0.3333333   0.4166667), wk =   0.0277778
        k(   25) = (   0.0000000   0.3333333  -0.5000000), wk =   0.0138889
        k(   26) = (   0.0000000   0.4166667   0.4166667), wk =   0.0138889
        k(   27) = (   0.0000000   0.4166667  -0.5000000), wk =   0.0138889
        k(   28) = (   0.0000000  -0.5000000  -0.5000000), wk =   0.0034722
        k(   29) = (   0.0833333   0.0833333   0.0833333), wk =   0.0092593
        k(   30) = (   0.0833333   0.0833333   0.1666667), wk =   0.0277778
        k(   31) = (   0.0833333   0.0833333   0.2500000), wk =   0.0277778
        k(   32) = (   0.0833333   0.0833333   0.3333333), wk =   0.0277778
        k(   33) = (   0.0833333   0.0833333   0.4166667), wk =   0.0277778
        k(   34) = (   0.0833333   0.0833333  -0.5000000), wk =   0.0138889
        k(   35) = (   0.0833333   0.1666667   0.1666667), wk =   0.0277778
        k(   36) = (   0.0833333   0.1666667   0.2500000), wk =   0.0555556
        k(   37) = (   0.0833333   0.1666667   0.3333333), wk =   0.0555556
        k(   38) = (   0.0833333   0.1666667   0.4166667), wk =   0.0555556
        k(   39) = (   0.0833333   0.1666667  -0.5000000), wk =   0.0277778
        k(   40) = (   0.0833333   0.2500000   0.2500000), wk =   0.0277778
        k(   41) = (   0.0833333   0.2500000   0.3333333), wk =   0.0555556
        k(   42) = (   0.0833333   0.2500000   0.4166667), wk =   0.0555556
        k(   43) = (   0.0833333   0.2500000  -0.5000000), wk =   0.0277778
        k(   44) = (   0.0833333   0.3333333   0.3333333), wk =   0.0277778
        k(   45) = (   0.0833333   0.3333333   0.4166667), wk =   0.0555556
        k(   46) = (   0.0833333   0.3333333  -0.5000000), wk =   0.0277778
        k(   47) = (   0.0833333   0.4166667   0.4166667), wk =   0.0277778
        k(   48) = (   0.0833333   0.4166667  -0.5000000), wk =   0.0277778
        k(   49) = (   0.0833333  -0.5000000  -0.5000000), wk =   0.0069444
        k(   50) = (   0.1666667   0.1666667   0.1666667), wk =   0.0092593
        k(   51) = (   0.1666667   0.1666667   0.2500000), wk =   0.0277778
        k(   52) = (   0.1666667   0.1666667   0.3333333), wk =   0.0277778
        k(   53) = (   0.1666667   0.1666667   0.4166667), wk =   0.0277778
        k(   54) = (   0.1666667   0.1666667  -0.5000000), wk =   0.0138889
        k(   55) = (   0.1666667   0.2500000   0.2500000), wk =   0.0277778
        k(   56) = (   0.1666667   0.2500000   0.3333333), wk =   0.0555556
        k(   57) = (   0.1666667   0.2500000   0.4166667), wk =   0.0555556
        k(   58) = (   0.1666667   0.2500000  -0.5000000), wk =   0.0277778
        k(   59) = (   0.1666667   0.3333333   0.3333333), wk =   0.0277778
        k(   60) = (   0.1666667   0.3333333   0.4166667), wk =   0.0555556
        k(   61) = (   0.1666667   0.3333333  -0.5000000), wk =   0.0277778
        k(   62) = (   0.1666667   0.4166667   0.4166667), wk =   0.0277778
        k(   63) = (   0.1666667   0.4166667  -0.5000000), wk =   0.0277778
        k(   64) = (   0.1666667  -0.5000000  -0.5000000), wk =   0.0069444
        k(   65) = (   0.2500000   0.2500000   0.2500000), wk =   0.0092593
        k(   66) = (   0.2500000   0.2500000   0.3333333), wk =   0.0277778
        k(   67) = (   0.2500000   0.2500000   0.4166667), wk =   0.0277778
        k(   68) = (   0.2500000   0.2500000  -0.5000000), wk =   0.0138889
        k(   69) = (   0.2500000   0.3333333   0.3333333), wk =   0.0277778
        k(   70) = (   0.2500000   0.3333333   0.4166667), wk =   0.0555556
        k(   71) = (   0.2500000   0.3333333  -0.5000000), wk =   0.0277778
        k(   72) = (   0.2500000   0.4166667   0.4166667), wk =   0.0277778
        k(   73) = (   0.2500000   0.4166667  -0.5000000), wk =   0.0277778
        k(   74) = (   0.2500000  -0.5000000  -0.5000000), wk =   0.0069444
        k(   75) = (   0.3333333   0.3333333   0.3333333), wk =   0.0092593
        k(   76) = (   0.3333333   0.3333333   0.4166667), wk =   0.0277778
        k(   77) = (   0.3333333   0.3333333  -0.5000000), wk =   0.0138889
        k(   78) = (   0.3333333   0.4166667   0.4166667), wk =   0.0277778
        k(   79) = (   0.3333333   0.4166667  -0.5000000), wk =   0.0277778
        k(   80) = (   0.3333333  -0.5000000  -0.5000000), wk =   0.0069444
        k(   81) = (   0.4166667   0.4166667   0.4166667), wk =   0.0092593
        k(   82) = (   0.4166667   0.4166667  -0.5000000), wk =   0.0138889
        k(   83) = (   0.4166667  -0.5000000  -0.5000000), wk =   0.0069444
        k(   84) = (  -0.5000000  -0.5000000  -0.5000000), wk =   0.0011574

     Dense  grid:    17077 G-vectors     FFT dimensions: (  36,  36,  36)

     Smooth grid:     6043 G-vectors     FFT dimensions: (  24,  24,  24)

     Dynamical RAM for                 wfc:       0.20 MB

     Dynamical RAM for     wfc (w. buffer):      16.82 MB

     Dynamical RAM for           str. fact:       0.52 MB

     Dynamical RAM for           local pot:       0.00 MB

     Dynamical RAM for          nlocal pot:       0.30 MB

     Dynamical RAM for                qrad:       3.21 MB

     Dynamical RAM for          rho,v,vnew:       1.85 MB

     Dynamical RAM for               rhoin:       0.62 MB

     Dynamical RAM for            rho*nmix:       4.17 MB

     Dynamical RAM for           G-vectors:       1.02 MB

     Dynamical RAM for          h,s,v(r/c):       0.05 MB

     Dynamical RAM for          <psi|beta>:       0.01 MB

     Dynamical RAM for                 psi:       0.40 MB

     Dynamical RAM for                hpsi:       0.40 MB

     Dynamical RAM for                spsi:       0.40 MB

     Dynamical RAM for      wfcinit/wfcrot:       0.40 MB

     Dynamical RAM for           addusdens:      48.73 MB

     Dynamical RAM for          addusforce:      48.86 MB

     Dynamical RAM for         addusstress:      52.38 MB

     Estimated static dynamical RAM per process >      26.91 MB

     Estimated max dynamical RAM per process >      83.45 MB

     Check: negative core charge=   -0.000003

     Initial potential from superposition of free atoms

     starting charge      25.9999, renormalised to      26.0000
     Starting wfcs are   17 randomized atomic wfcs
     Checking if some PAW data can be deallocated... 

     total cpu time spent up to now is       14.1 secs

     Self-consistent Calculation

     iteration #  1     ecut=    50.00 Ry     beta= 0.40
     Davidson diagonalization with overlap

---- Real-time Memory Report at c_bands before calling an iterative solver
            94 MiB given to the printing process from OS
             0 MiB allocation reported by mallinfo(arena+hblkhd)
          4700 MiB available memory on the node where the printing process lives
------------------
     ethr =  1.00E-02,  avg # of iterations =  2.9

     total cpu time spent up to now is       27.4 secs

     WARNING: integrated charge=    26.00000280, expected=    26.00000000

     total energy              =    -503.04343476 Ry
     estimated scf accuracy    <       0.45957779 Ry

     iteration #  2     ecut=    50.00 Ry     beta= 0.40
     Davidson diagonalization with overlap

---- Real-time Memory Report at c_bands before calling an iterative solver
           124 MiB given to the printing process from OS
             0 MiB allocation reported by mallinfo(arena+hblkhd)
          4646 MiB available memory on the node where the printing process lives
------------------
     ethr =  1.77E-03,  avg # of iterations =  2.2

     total cpu time spent up to now is       48.4 secs

     WARNING: integrated charge=    26.00281069, expected=    26.00000000

     total energy              =    -503.15913674 Ry
     estimated scf accuracy    <       0.07051066 Ry

     iteration #  3     ecut=    50.00 Ry     beta= 0.40
     Davidson diagonalization with overlap

---- Real-time Memory Report at c_bands before calling an iterative solver
           125 MiB given to the printing process from OS
             0 MiB allocation reported by mallinfo(arena+hblkhd)
          4558 MiB available memory on the node where the printing process lives
------------------
     ethr =  2.71E-04,  avg # of iterations =  2.2

     total cpu time spent up to now is       69.0 secs

     WARNING: integrated charge=    26.00574818, expected=    26.00000000

     total energy              =    -503.17071314 Ry
     estimated scf accuracy    <       0.00477866 Ry

     iteration #  4     ecut=    50.00 Ry     beta= 0.40
     Davidson diagonalization with overlap

---- Real-time Memory Report at c_bands before calling an iterative solver
           125 MiB given to the printing process from OS
             0 MiB allocation reported by mallinfo(arena+hblkhd)
          4480 MiB available memory on the node where the printing process lives
------------------
     ethr =  1.84E-05,  avg # of iterations =  1.8

     total cpu time spent up to now is       83.4 secs

     WARNING: integrated charge=    26.00817445, expected=    26.00000000

     total energy              =    -503.17026227 Ry
     estimated scf accuracy    <       0.00075508 Ry

     iteration #  5     ecut=    50.00 Ry     beta= 0.40
     Davidson diagonalization with overlap

---- Real-time Memory Report at c_bands before calling an iterative solver
           125 MiB given to the printing process from OS
             0 MiB allocation reported by mallinfo(arena+hblkhd)
          4577 MiB available memory on the node where the printing process lives
------------------
     ethr =  2.90E-06,  avg # of iterations =  2.1

     total cpu time spent up to now is      105.5 secs

     WARNING: integrated charge=    26.00847608, expected=    26.00000000

     total energy              =    -503.17046070 Ry
     estimated scf accuracy    <       0.00000736 Ry

     iteration #  6     ecut=    50.00 Ry     beta= 0.40
     Davidson diagonalization with overlap

---- Real-time Memory Report at c_bands before calling an iterative solver
           125 MiB given to the printing process from OS
             0 MiB allocation reported by mallinfo(arena+hblkhd)
          4547 MiB available memory on the node where the printing process lives
------------------
     ethr =  2.83E-08,  avg # of iterations =  2.4

     total cpu time spent up to now is      139.9 secs

     WARNING: integrated charge=    26.00860095, expected=    26.00000000

     total energy              =    -503.17046387 Ry
     estimated scf accuracy    <       0.00000787 Ry

     iteration #  7     ecut=    50.00 Ry     beta= 0.40
     Davidson diagonalization with overlap

---- Real-time Memory Report at c_bands before calling an iterative solver
           125 MiB given to the printing process from OS
             0 MiB allocation reported by mallinfo(arena+hblkhd)
          4471 MiB available memory on the node where the printing process lives
------------------
     ethr =  2.83E-08,  avg # of iterations =  1.9

     total cpu time spent up to now is      148.8 secs

     WARNING: integrated charge=    26.00863952, expected=    26.00000000

     total energy              =    -503.17046395 Ry
     estimated scf accuracy    <       0.00000074 Ry

     iteration #  8     ecut=    50.00 Ry     beta= 0.40
     Davidson diagonalization with overlap

---- Real-time Memory Report at c_bands before calling an iterative solver
           126 MiB given to the printing process from OS
             0 MiB allocation reported by mallinfo(arena+hblkhd)
          4472 MiB available memory on the node where the printing process lives
------------------
     ethr =  2.83E-09,  avg # of iterations =  2.0

     total cpu time spent up to now is      181.6 secs

     WARNING: integrated charge=    26.00862897, expected=    26.00000000

     total energy              =    -503.17046411 Ry
     estimated scf accuracy    <       0.00000004 Ry

     iteration #  9     ecut=    50.00 Ry     beta= 0.40
     Davidson diagonalization with overlap

---- Real-time Memory Report at c_bands before calling an iterative solver
           126 MiB given to the printing process from OS
             0 MiB allocation reported by mallinfo(arena+hblkhd)
          4385 MiB available memory on the node where the printing process lives
------------------
     ethr =  1.55E-10,  avg # of iterations =  2.0

     total cpu time spent up to now is      208.4 secs

     End of self-consistent calculation

          k = 0.0000 0.0000 0.0000 (   751 PWs)   bands (ev):

  -111.7950 -65.9763 -65.9763 -65.9763  -5.6878   6.4408   6.4408   7.5736
     7.5736   7.5736  11.7295  11.7295  11.7295  12.2664  27.1890  27.1890
    30.6935

     occupation numbers 
     1.0000   1.0000   1.0000   1.0000   1.0000   1.0000   1.0000   1.0000
     1.0000   1.0000   1.0000   1.0000   1.0000   1.0000   0.0000   0.0000
     0.0000

          k = 0.0000 0.0000 0.0833 (   747 PWs)   bands (ev):

  -111.7949 -65.9775 -65.9761 -65.9761  -5.6152   6.4503   6.4536   7.5237
     7.5237   7.5760  10.6733  11.8171  11.8171  13.2622  26.5693  27.2892
    30.5947

     occupation numbers 
     1.0000   1.0000   1.0000   1.0000   1.0000   1.0000   1.0000   1.0000
     1.0000   1.0000   1.0000   1.0000   1.0000   1.0488   0.0000   0.0000
     0.0000

          k = 0.0000 0.0000 0.1667 (   759 PWs)   bands (ev):

  -111.7947 -65.9813 -65.9759 -65.9759  -5.4084   6.4292   6.4763   7.3951
     7.3951   7.5826   9.4873  12.0517  12.0517  14.3722  25.2359  27.5911
    30.2994

     occupation numbers 
     1.0000   1.0000   1.0000   1.0000   1.0000   1.0000   1.0000   1.0000
     1.0000   1.0000   1.0000   1.0000   1.0000   0.0000   0.0000   0.0000
     0.0000

          k = 0.0000 0.0000 0.2500 (   767 PWs)   bands (ev):

  -111.7944 -65.9862 -65.9757 -65.9757  -5.1024   6.1659   6.5119   7.2346
     7.2346   7.5916   8.6765  12.3645  12.3645  15.4036  23.6561  28.0968
    29.8440

     occupation numbers 
     1.0000   1.0000   1.0000   1.0000   1.0000   1.0000   1.0000   1.0000
     1.0000   1.0000   1.0000   1.0000   1.0000   0.0000   0.0000   0.0000
     0.0000

          k = 0.0000 0.0000 0.3333 (   784 PWs)   bands (ev):

  -111.7940 -65.9914 -65.9754 -65.9754  -4.7622   5.5785   6.5478   7.0877
     7.0877   7.6006   8.4075  12.6732  12.6732  16.4155  22.0379  28.7991
    29.3411

     occupation numbers 
     1.0000   1.0000   1.0000   1.0000   1.0000   1.0000   1.0000   1.0000
     1.0000   1.0000   1.0000   1.0000   1.0000   0.0000   0.0000   0.0000
     0.0000

          k = 0.0000 0.0000 0.4167 (   772 PWs)   bands (ev):

  -111.7938 -65.9949 -65.9751 -65.9751  -4.4850   5.0101   6.5742   6.9873
     6.9873   7.6073   8.4121  12.8990  12.8990  17.4502  20.5460  28.9507
    28.9507

     occupation numbers 
     1.0000   1.0000   1.0000   1.0000   1.0000   1.0000   1.0000   1.0000
     1.0000   1.0000   1.0000   1.0000   1.0000   0.0000   0.0000   0.0000
     0.0000

          k = 0.0000 0.0000-0.5000 (   756 PWs)   bands (ev):

  -111.7937 -65.9961 -65.9748 -65.9748  -4.3761   4.7848   6.5840   6.9519
     6.9519   7.6098   8.4381  12.9819  12.9819  18.1668  19.6605  28.8041
    28.8041

     occupation numbers 
     1.0000   1.0000   1.0000   1.0000   1.0000   1.0000   1.0000   1.0000
     1.0000   1.0000   1.0000   1.0003   1.0003   0.0000   0.0000   0.0000
     0.0000

          k = 0.0000 0.0833 0.0833 (   752 PWs)   bands (ev):

  -111.7948 -65.9776 -65.9774 -65.9760  -5.5439   6.4594   6.4723   7.4679
     7.5021   7.5544  10.3804  11.5078  11.8974  13.8905  26.4565  26.9010
    30.5201

     occupation numbers 
     1.0000   1.0000   1.0000   1.0000   1.0000   1.0000   1.0000   1.0000
     1.0000   1.0000   1.0000   1.0000   1.0000   0.0127   0.0000   0.0000
     0.0000

          k = 0.0000 0.0833 0.1667 (   762 PWs)   bands (ev):

  -111.7946 -65.9812 -65.9773 -65.9759  -5.3408   6.4502   6.4990   7.3307
     7.3921   7.5530   9.4975  11.5551  12.1131  14.8726  25.2838  26.9423
    30.2887

     occupation numbers 
     1.0000   1.0000   1.0000   1.0000   1.0000   1.0000   1.0000   1.0000
     1.0000   1.0000   1.0000   1.0000   1.0000   0.0000   0.0000   0.0000
     0.0000

          k = 0.0000 0.0833 0.2500 (   768 PWs)   bands (ev):

  -111.7943 -65.9862 -65.9770 -65.9756  -5.0407   6.2120   6.5334   7.1890
     7.2421   7.5635   8.7321  11.8443  12.4014  15.8311  23.6796  27.2107
    29.9125

     occupation numbers 
     1.0000   1.0000   1.0000   1.0000   1.0000   1.0000   1.0000   1.0000
     1.0000   1.0000   1.0000   1.0000   1.0000   0.0000   0.0000   0.0000
     0.0000

          k = 0.0000 0.0833 0.3333 (   772 PWs)   bands (ev):

  -111.7939 -65.9912 -65.9766 -65.9753  -4.7079   5.6584   6.5723   7.0741
     7.1029   7.5752   8.4331  12.1692  12.6863  16.7786  22.0281  27.4857
    29.4783

     occupation numbers 
     1.0000   1.0000   1.0000   1.0000   1.0000   1.0000   1.0000   1.0000
     1.0000   1.0000   1.0000   1.0000   1.0000   0.0000   0.0000   0.0000
     0.0000

          k = 0.0000 0.0833 0.4167 (   770 PWs)   bands (ev):

  -111.7937 -65.9947 -65.9763 -65.9750  -4.4375   5.1170   6.6034   6.9827
     7.0071   7.5840   8.4169  12.4201  12.8945  17.7791  20.4973  27.6480
    29.1312

     occupation numbers 
     1.0000   1.0000   1.0000   1.0000   1.0000   1.0000   1.0000   1.0000
     1.0000   1.0000   1.0000   1.0000   1.0000   0.0000   0.0000   0.0000
     0.0000

          k = 0.0000 0.0833-0.5000 (   780 PWs)   bands (ev):

  -111.7936 -65.9962 -65.9763 -65.9749  -4.3316   4.9011   6.6157   6.9472
     6.9731   7.5872   8.4376  12.5148  12.9709  18.6089  19.4709  27.6878
    28.9991

     occupation numbers 
     1.0000   1.0000   1.0000   1.0000   1.0000   1.0000   1.0000   1.0000
     1.0000   1.0000   1.0000   1.0000   1.0002   0.0000   0.0000   0.0000
     0.0000

          k = 0.0000 0.1667 0.1667 (   770 PWs)   bands (ev):

  -111.7944 -65.9811 -65.9809 -65.9757  -5.1486   6.4480   6.5714   7.1848
     7.3580   7.5019   9.3419  10.9185  12.2787  15.7494  25.3785  25.4866
    30.2330

     occupation numbers 
     1.0000   1.0000   1.0000   1.0000   1.0000   1.0000   1.0000   1.0000
     1.0000   1.0000   1.0000   1.0000   1.0000   0.0000   0.0000   0.0000
     0.0000

          k = 0.0000 0.1667 0.2500 (   764 PWs)   bands (ev):

  -111.7940 -65.9859 -65.9805 -65.9753  -4.8659   6.2898   6.6165   7.0871
     7.2580   7.4939   8.8491  10.8647  12.5011  16.6021  23.7009  25.6019
    30.0906

     occupation numbers 
     1.0000   1.0000   1.0000   1.0000   1.0000   1.0000   1.0000   1.0000
     1.0000   1.0000   1.0000   1.0000   1.0000   0.0000   0.0000   0.0000
     0.0000

          k = 0.0000 0.1667 0.3333 (   758 PWs)   bands (ev):

  -111.7937 -65.9907 -65.9801 -65.9749  -4.5547   5.8653   6.6521   7.0443
     7.1442   7.5077   8.5021  11.1118  12.7210  17.4010  22.0089  25.7937
    29.8697

     occupation numbers 
     1.0000   1.0000   1.0000   1.0000   1.0000   1.0000   1.0000   1.0000
     1.0000   1.0000   1.0000   1.0000   1.0000   0.0000   0.0000   0.0000
     0.0000

          k = 0.0000 0.1667 0.4167 (   763 PWs)   bands (ev):

  -111.7934 -65.9944 -65.9798 -65.9746  -4.3041   5.4197   6.6892   6.9772
     7.0617   7.5212   8.4285  11.3636  12.8815  18.2107  20.5371  25.9442
    29.6610

     occupation numbers 
     1.0000   1.0000   1.0000   1.0000   1.0000   1.0000   1.0000   1.0000
     1.0000   1.0000   1.0000   1.0000   1.0000   0.0000   0.0000   0.0000
     0.0000

          k = 0.0000 0.1667-0.5000 (   766 PWs)   bands (ev):

  -111.7933 -65.9958 -65.9797 -65.9746  -4.2065   5.2358   6.7073   6.9415
     7.0320   7.5264   8.4334  11.4674  12.9402  18.8949  19.6067  26.0021
    29.5757

     occupation numbers 
     1.0000   1.0000   1.0000   1.0000   1.0000   1.0000   1.0000   1.0000
     1.0000   1.0000   1.0000   1.0000   1.0001   0.0000   0.0000   0.0000
     0.0000

          k = 0.0000 0.2500 0.2500 (   758 PWs)   bands (ev):

  -111.7937 -65.9855 -65.9853 -65.9749  -4.6109   6.2668   6.7501   7.0147
     7.2530   7.4301   8.8456  10.1308  12.6348  17.2761  23.2365  24.4865
    30.3006

     occupation numbers 
     1.0000   1.0000   1.0000   1.0000   1.0000   1.0000   1.0000   1.0000
     1.0000   1.0000   1.0000   1.0000   1.0000   0.0000   0.0000   0.0000
     0.0000

          k = 0.0000 0.2500 0.3333 (   761 PWs)   bands (ev):

  -111.7933 -65.9903 -65.9851 -65.9746  -4.3333   6.0919   6.8124   7.0222
     7.1972   7.4216   8.5871  10.0320  12.7664  17.7264  22.0051  24.4553
    30.4495

     occupation numbers 
     1.0000   1.0000   1.0000   1.0000   1.0000   1.0000   1.0000   1.0000
     1.0000   1.0000   1.0000   1.0000   1.0000   0.0000   0.0000   0.0000
     0.0000

          k = 0.0000 0.2500 0.4167 (   765 PWs)   bands (ev):

  -111.7931 -65.9940 -65.9848 -65.9743  -4.1124   5.8516   6.8373   6.9916
     7.1375   7.4370   8.4361  10.2004  12.8618  17.9324  21.0846  24.6062
    30.5033

     occupation numbers 
     1.0000   1.0000   1.0000   1.0000   1.0000   1.0000   1.0000   1.0000
     1.0000   1.0000   1.0000   1.0000   1.0000   0.0000   0.0000   0.0000
     0.0000

          k = 0.0000 0.2500-0.5000 (   770 PWs)   bands (ev):

  -111.7930 -65.9954 -65.9847 -65.9742  -4.0272   5.7379   6.8527   6.9580
     7.1142   7.4446   8.4147  10.2918  12.8966  17.9730  20.7682  24.6798
    30.5100

     occupation numbers 
     1.0000   1.0000   1.0000   1.0000   1.0000   1.0000   1.0000   1.0000
     1.0000   1.0000   1.0000   1.0000   1.0000   0.0000   0.0000   0.0000
     0.0000

          k = 0.0000 0.3333 0.3333 (   748 PWs)   bands (ev):

  -111.7930 -65.9899 -65.9897 -65.9741  -4.0951   6.2224   7.0211   7.0229
     7.2315   7.3579   8.5861   9.3075  12.8096  17.5479  21.9969  23.8105
    31.0860

     occupation numbers 
     1.0000   1.0000   1.0000   1.0000   1.0000   1.0000   1.0000   1.0000
     1.0000   1.0000   1.0000   1.0000   1.0000   0.0000   0.0000   0.0000
     0.0000

          k = 0.0000 0.3333 0.4167 (   766 PWs)   bands (ev):

  -111.7928 -65.9936 -65.9896 -65.9740  -3.9082   6.2690   7.0310   7.1012
     7.2142   7.3555   8.4142   9.1870  12.8399  17.1188  21.9390  23.7614
    30.2900

     occupation numbers 
     1.0000   1.0000   1.0000   1.0000   1.0000   1.0000   1.0000   1.0000
     1.0000   1.0000   1.0000   1.0000   1.0000   0.0000   0.0000   0.0000
     0.0000

          k = 0.0000 0.3333-0.5000 (   770 PWs)   bands (ev):

  -111.7927 -65.9950 -65.9895 -65.9739  -3.8367   6.2805   7.0324   7.0782
     7.1986   7.3643   8.3579   9.2227  12.8508  16.9043  21.9045  23.8288
    30.0276

     occupation numbers 
     1.0000   1.0000   1.0000   1.0000   1.0000   1.0000   1.0000   1.0000
     1.0000   1.0000   1.0000   1.0000   1.0000   0.0000   0.0000   0.0000
     0.0000

          k = 0.0000 0.4167 0.4167 (   762 PWs)   bands (ev):

  -111.7925 -65.9932 -65.9931 -65.9738  -3.7495   6.5334   7.1206   7.2635
     7.3048   7.4041   8.2932   8.5554  12.8225  16.3428  22.6425  23.3754
    29.5807

     occupation numbers 
     1.0000   1.0000   1.0000   1.0000   1.0000   1.0000   1.0000   1.0000
     1.0000   1.0000   1.0000   1.0000   1.0000   0.0000   0.0000   0.0000
     0.0000

          k = 0.0000 0.4167-0.5000 (   766 PWs)   bands (ev):

  -111.7924 -65.9946 -65.9930 -65.9737  -3.6892   6.6285   7.2001   7.2619
     7.3064   7.4672   8.2167   8.3892  12.8158  16.0267  22.8326  23.3687
    29.2490

     occupation numbers 
     1.0000   1.0000   1.0000   1.0000   1.0000   1.0000   1.0000   1.0000
     1.0000   1.0000   1.0000   1.0000   1.0000   0.0000   0.0000   0.0000
     0.0000

          k = 0.0000-0.5000-0.5000 (   768 PWs)   bands (ev):

  -111.7923 -65.9944 -65.9944 -65.9737  -3.6334   6.7230   7.2854   7.2854
     7.3692   7.8436   7.9860   7.9860  12.8027  15.6818  23.2236  23.2236
    28.8763

     occupation numbers 
     1.0000   1.0000   1.0000   1.0000   1.0000   1.0000   1.0000   1.0000
     1.0000   1.0000   1.0000   1.0000   1.0000   0.0000   0.0000   0.0000
     0.0000

          k = 0.0833 0.0833 0.0833 (   757 PWs)   bands (ev):

  -111.7948 -65.9775 -65.9774 -65.9774  -5.4738   6.4823   6.4823   7.4231
     7.5015   7.5015  10.1762  11.6004  11.6004  14.3948  26.5064  26.5064
    29.5184

     occupation numbers 
     1.0000   1.0000   1.0000   1.0000   1.0000   1.0000   1.0000   1.0000
     1.0000   1.0000   1.0000   1.0000   1.0000   0.0000   0.0000   0.0000
     0.0000

          k = 0.0833 0.0833 0.1667 (   763 PWs)   bands (ev):

  -111.7945 -65.9811 -65.9773 -65.9772  -5.2741   6.4874   6.5103   7.3052
     7.3654   7.5119   9.4827  11.4870  11.8479  15.2807  25.3216  26.6409
    29.1592

     occupation numbers 
     1.0000   1.0000   1.0000   1.0000   1.0000   1.0000   1.0000   1.0000
     1.0000   1.0000   1.0000   1.0000   1.0000   0.0000   0.0000   0.0000
     0.0000

          k = 0.0833 0.0833 0.2500 (   770 PWs)   bands (ev):

  -111.7942 -65.9861 -65.9769 -65.9768  -4.9797   6.2654   6.5500   7.1950
     7.2050   7.5281   8.7733  11.6744  12.1781  16.1706  23.7173  26.8101
    29.1145

     occupation numbers 
     1.0000   1.0000   1.0000   1.0000   1.0000   1.0000   1.0000   1.0000
     1.0000   1.0000   1.0000   1.0000   1.0000   0.0000   0.0000   0.0000
     0.0000

          k = 0.0833 0.0833 0.3333 (   758 PWs)   bands (ev):

  -111.7938 -65.9909 -65.9764 -65.9764  -4.6538   5.7394   6.5934   7.0364
     7.1416   7.5451   8.4594  11.9378  12.5050  17.0547  22.0520  26.9308
    29.1012

     occupation numbers 
     1.0000   1.0000   1.0000   1.0000   1.0000   1.0000   1.0000   1.0000
     1.0000   1.0000   1.0000   1.0000   1.0000   0.0000   0.0000   0.0000
     0.0000

          k = 0.0833 0.0833 0.4167 (   770 PWs)   bands (ev):

  -111.7936 -65.9947 -65.9762 -65.9762  -4.3899   5.2212   6.6310   6.9222
     7.0803   7.5576   8.4280  12.1542  12.7452  18.0107  20.5078  26.9527
    29.0648

     occupation numbers 
     1.0000   1.0000   1.0000   1.0000   1.0000   1.0000   1.0000   1.0000
     1.0000   1.0000   1.0000   1.0000   1.0000   0.0000   0.0000   0.0000
     0.0000

          k = 0.0833 0.0833-0.5000 (   768 PWs)   bands (ev):

  -111.7935 -65.9960 -65.9762 -65.9761  -4.2866   5.0134   6.6480   6.8785
     7.0542   7.5622   8.4447  12.2378  12.8337  18.9823  19.3179  26.9395
    29.0441

     occupation numbers 
     1.0000   1.0000   1.0000   1.0000   1.0000   1.0000   1.0000   1.0000
     1.0000   1.0000   1.0000   1.0000   1.0000   0.0000   0.0000   0.0000
     0.0000

          k = 0.0833 0.1667 0.1667 (   762 PWs)   bands (ev):

  -111.7943 -65.9809 -65.9807 -65.9769  -5.0849   6.5011   6.5798   7.1909
     7.3269   7.4424   9.2964  11.0272  11.9330  16.0493  25.3474  25.5337
    28.7622

     occupation numbers 
     1.0000   1.0000   1.0000   1.0000   1.0000   1.0000   1.0000   1.0000
     1.0000   1.0000   1.0000   1.0000   1.0000   0.0000   0.0000   0.0000
     0.0000

          k = 0.0833 0.1667 0.2500 (   766 PWs)   bands (ev):

  -111.7939 -65.9858 -65.9805 -65.9766  -4.8069   6.3610   6.6202   7.1024
     7.2286   7.4433   8.8435  10.9161  12.1964  16.8143  23.7799  25.5137
    28.9182

     occupation numbers 
     1.0000   1.0000   1.0000   1.0000   1.0000   1.0000   1.0000   1.0000
     1.0000   1.0000   1.0000   1.0000   1.0000   0.0000   0.0000   0.0000
     0.0000

          k = 0.0833 0.1667 0.3333 (   762 PWs)   bands (ev):

  -111.7936 -65.9906 -65.9800 -65.9762  -4.5015   5.9480   6.6589   6.9940
     7.1980   7.4681   8.5221  11.0789  12.4725  17.5357  22.1101  25.5411
    29.1743

     occupation numbers 
     1.0000   1.0000   1.0000   1.0000   1.0000   1.0000   1.0000   1.0000
     1.0000   1.0000   1.0000   1.0000   1.0000   0.0000   0.0000   0.0000
     0.0000

          k = 0.0833 0.1667 0.4167 (   766 PWs)   bands (ev):

  -111.7933 -65.9943 -65.9798 -65.9760  -4.2560   5.5136   6.7051   6.8767
     7.1723   7.4892   8.4550  11.2690  12.6803  18.2698  20.6719  25.5105
    29.3663

     occupation numbers 
     1.0000   1.0000   1.0000   1.0000   1.0000   1.0000   1.0000   1.0000
     1.0000   1.0000   1.0000   1.0000   1.0000   0.0000   0.0000   0.0000
     0.0000

          k = 0.0833 0.1667-0.5000 (   772 PWs)   bands (ev):

  -111.7933 -65.9958 -65.9797 -65.9759  -4.1605   5.3343   6.7401   6.8155
     7.1556   7.4972   8.4619  11.3496  12.7578  18.8312  19.8496  25.4858
    29.4392

     occupation numbers 
     1.0000   1.0000   1.0000   1.0000   1.0000   1.0000   1.0000   1.0000
     1.0000   1.0000   1.0000   1.0000   1.0000   0.0000   0.0000   0.0000
     0.0000

          k = 0.0833 0.2500 0.2500 (   759 PWs)   bands (ev):

  -111.7936 -65.9854 -65.9852 -65.9762  -4.5551   6.3443   6.7386   7.0312
     7.2459   7.3741   8.7887  10.2679  12.3588  17.3851  23.3983  24.3584
    29.1996

     occupation numbers 
     1.0000   1.0000   1.0000   1.0000   1.0000   1.0000   1.0000   1.0000
     1.0000   1.0000   1.0000   1.0000   1.0000   0.0000   0.0000   0.0000
     0.0000

          k = 0.0833 0.2500 0.3333 (   761 PWs)   bands (ev):

  -111.7933 -65.9902 -65.9849 -65.9759  -4.2811   6.1670   6.7838   6.9791
     7.2592   7.3839   8.5767  10.1185  12.5378  17.7695  22.1426  24.2483
    29.6066

     occupation numbers 
     1.0000   1.0000   1.0000   1.0000   1.0000   1.0000   1.0000   1.0000
     1.0000   1.0000   1.0000   1.0000   1.0000   0.0000   0.0000   0.0000
     0.0000

          k = 0.0833 0.2500 0.4167 (   768 PWs)   bands (ev):

  -111.7930 -65.9939 -65.9847 -65.9757  -4.0634   5.9221   6.7883   6.9038
     7.2638   7.4125   8.4817  10.2122  12.6756  17.9559  21.1978  24.2538
    29.9782

     occupation numbers 
     1.0000   1.0000   1.0000   1.0000   1.0000   1.0000   1.0000   1.0000
     1.0000   1.0000   1.0000   1.0000   1.0000   0.0000   0.0000   0.0000
     0.0000

          k = 0.0833 0.2500-0.5000 (   768 PWs)   bands (ev):

  -111.7929 -65.9953 -65.9845 -65.9755  -3.9795   5.8067   6.7827   6.8782
     7.2548   7.4244   8.4790  10.2741  12.7278  17.9992  20.8676  24.2519
    30.1630

     occupation numbers 
     1.0000   1.0000   1.0000   1.0000   1.0000   1.0000   1.0000   1.0000
     1.0000   1.0000   1.0000   1.0000   1.0000   0.0000   0.0000   0.0000
     0.0000

          k = 0.0833 0.3333 0.3333 (   762 PWs)   bands (ev):

  -111.7929 -65.9899 -65.9897 -65.9756  -4.0442   6.2724   6.9096   6.9789
     7.3075   7.3765   8.5472   9.4850  12.6173  17.5847  22.0457  23.5911
    30.1423

     occupation numbers 
     1.0000   1.0000   1.0000   1.0000   1.0000   1.0000   1.0000   1.0000
     1.0000   1.0000   1.0000   1.0000   1.0000   0.0000   0.0000   0.0000
     0.0000

          k = 0.0833 0.3333 0.4167 (   757 PWs)   bands (ev):

  -111.7927 -65.9934 -65.9895 -65.9752  -3.8582   6.2990   6.8662   6.9941
     7.3324   7.4219   8.4792   9.3124  12.6806  17.1828  21.8988  23.4599
    30.3533

     occupation numbers 
     1.0000   1.0000   1.0000   1.0000   1.0000   1.0000   1.0000   1.0000
     1.0000   1.0000   1.0000   1.0000   1.0000   0.0000   0.0000   0.0000
     0.0000

          k = 0.0833 0.3333-0.5000 (   764 PWs)   bands (ev):

  -111.7926 -65.9948 -65.9894 -65.9752  -3.7871   6.3050   6.8020   7.0122
     7.3262   7.4339   8.4794   9.3081  12.7053  16.9802  21.8449  23.4618
    30.2603

     occupation numbers 
     1.0000   1.0000   1.0000   1.0000   1.0000   1.0000   1.0000   1.0000
     1.0000   1.0000   1.0000   1.0000   1.0000   0.0000   0.0000   0.0000
     0.0000

          k = 0.0833 0.4167 0.4167 (   763 PWs)   bands (ev):

  -111.7924 -65.9932 -65.9930 -65.9751  -3.6986   6.5392   6.9576   6.9725
     7.3476   7.5920   8.4283   8.7926  12.6862  16.4281  22.4508  23.0934
    29.8008

     occupation numbers 
     1.0000   1.0000   1.0000   1.0000   1.0000   1.0000   1.0000   1.0000
     1.0000   1.0000   1.0000   1.0000   1.0000   0.0000   0.0000   0.0000
     0.0000

          k = 0.0833 0.4167-0.5000 (   760 PWs)   bands (ev):

  -111.7923 -65.9944 -65.9929 -65.9749  -3.6379   6.6576   6.8891   7.0189
     7.3273   7.6638   8.4415   8.6344  12.6888  16.1162  22.6113  23.0477
    29.5326

     occupation numbers 
     1.0000   1.0000   1.0000   1.0000   1.0000   1.0000   1.0000   1.0000
     1.0000   1.0000   1.0000   1.0000   1.0000   0.0000   0.0000   0.0000
     0.0000

          k = 0.0833-0.5000-0.5000 (   760 PWs)   bands (ev):

  -111.7922 -65.9943 -65.9943 -65.9748  -3.5814   6.7961   6.9722   6.9722
     7.2785   7.8449   8.3946   8.3946  12.6826  15.7718  22.9198  22.9198
    29.2081

     occupation numbers 
     1.0000   1.0000   1.0000   1.0000   1.0000   1.0000   1.0000   1.0000
     1.0000   1.0000   1.0000   1.0000   1.0000   0.0000   0.0000   0.0000
     0.0000

          k = 0.1667 0.1667 0.1667 (   772 PWs)   bands (ev):

  -111.7940 -65.9809 -65.9805 -65.9805  -4.9044   6.6023   6.6023   7.1756
     7.2933   7.2933   9.1133  11.3161  11.3161  16.6432  25.2378  25.2378
    27.5979

     occupation numbers 
     1.0000   1.0000   1.0000   1.0000   1.0000   1.0000   1.0000   1.0000
     1.0000   1.0000   1.0000   1.0000   1.0000   0.0000   0.0000   0.0000
     0.0000

          k = 0.1667 0.1667 0.2500 (   765 PWs)   bands (ev):

  -111.7937 -65.9854 -65.9803 -65.9801  -4.6402   6.5212   6.6320   7.1149
     7.1938   7.3280   8.7822  10.9410  11.7015  17.2294  23.9054  25.0202
    27.7365

     occupation numbers 
     1.0000   1.0000   1.0000   1.0000   1.0000   1.0000   1.0000   1.0000
     1.0000   1.0000   1.0000   1.0000   1.0000   0.0000   0.0000   0.0000
     0.0000

          k = 0.1667 0.1667 0.3333 (   761 PWs)   bands (ev):

  -111.7933 -65.9903 -65.9799 -65.9797  -4.3514   6.1579   6.6580   6.9601
     7.2785   7.3777   8.5440  10.8526  12.0864  17.7633  22.3269  24.7117
    28.4200

     occupation numbers 
     1.0000   1.0000   1.0000   1.0000   1.0000   1.0000   1.0000   1.0000
     1.0000   1.0000   1.0000   1.0000   1.0000   0.0000   0.0000   0.0000
     0.0000

          k = 0.1667 0.1667 0.4167 (   765 PWs)   bands (ev):

  -111.7931 -65.9940 -65.9796 -65.9794  -4.1205   5.7684   6.6696   6.8640
     7.2955   7.4161   8.5177  10.8827  12.3734  18.2771  21.0214  24.4233
    29.0905

     occupation numbers 
     1.0000   1.0000   1.0000   1.0000   1.0000   1.0000   1.0000   1.0000
     1.0000   1.0000   1.0000   1.0000   1.0000   0.0000   0.0000   0.0000
     0.0000

          k = 0.1667 0.1667-0.5000 (   768 PWs)   bands (ev):

  -111.7930 -65.9954 -65.9796 -65.9793  -4.0312   5.6061   6.6696   6.8348
     7.2883   7.4303   8.5402  10.9078  12.4803  18.5858  20.4197  24.3043
    29.3809

     occupation numbers 
     1.0000   1.0000   1.0000   1.0000   1.0000   1.0000   1.0000   1.0000
     1.0000   1.0000   1.0000   1.0000   1.0000   0.0000   0.0000   0.0000
     0.0000

          k = 0.1667 0.2500 0.2500 (   759 PWs)   bands (ev):

  -111.7933 -65.9852 -65.9849 -65.9798  -4.3975   6.5249   6.6939   7.0708
     7.2580   7.2584   8.6202  10.6274  11.7376  17.5931  23.6802  23.9773
    27.6521

     occupation numbers 
     1.0000   1.0000   1.0000   1.0000   1.0000   1.0000   1.0000   1.0000
     1.0000   1.0000   1.0000   1.0000   1.0000   0.0000   0.0000   0.0000
     0.0000

          k = 0.1667 0.2500 0.3333 (   760 PWs)   bands (ev):

  -111.7930 -65.9899 -65.9846 -65.9794  -4.1342   6.3411   6.6563   7.0015
     7.3160   7.3553   8.5065  10.3585  12.0230  17.8424  22.3959  23.6279
    28.3025

     occupation numbers 
     1.0000   1.0000   1.0000   1.0000   1.0000   1.0000   1.0000   1.0000
     1.0000   1.0000   1.0000   1.0000   1.0000   0.0000   0.0000   0.0000
     0.0000

          k = 0.1667 0.2500 0.4167 (   765 PWs)   bands (ev):

  -111.7928 -65.9936 -65.9844 -65.9792  -3.9256   6.0883   6.5861   6.9711
     7.3666   7.3745   8.5859  10.2399  12.2726  17.9878  21.4152  23.3102
    29.1269

     occupation numbers 
     1.0000   1.0000   1.0000   1.0000   1.0000   1.0000   1.0000   1.0000
     1.0000   1.0000   1.0000   1.0000   1.0000   0.0000   0.0000   0.0000
     0.0000

          k = 0.1667 0.2500-0.5000 (   766 PWs)   bands (ev):

  -111.7927 -65.9949 -65.9843 -65.9791  -3.8453   5.9708   6.5572   6.9660
     7.3556   7.3928   8.6584  10.2068  12.3704  18.0366  21.0579  23.1738
    29.5537

     occupation numbers 
     1.0000   1.0000   1.0000   1.0000   1.0000   1.0000   1.0000   1.0000
     1.0000   1.0000   1.0000   1.0000   1.0000   0.0000   0.0000   0.0000
     0.0000

          k = 0.1667 0.3333 0.3333 (   756 PWs)   bands (ev):

  -111.7927 -65.9896 -65.9894 -65.9790  -3.9006   6.3468   6.6708   7.0047
     7.3917   7.4028   8.4847   9.9371  12.1523  17.6757  22.0376  22.9725
    28.6978

     occupation numbers 
     1.0000   1.0000   1.0000   1.0000   1.0000   1.0000   1.0000   1.0000
     1.0000   1.0000   1.0000   1.0000   1.0000   0.0000   0.0000   0.0000
     0.0000

          k = 0.1667 0.3333 0.4167 (   762 PWs)   bands (ev):

  -111.7924 -65.9931 -65.9892 -65.9788  -3.7172   6.3071   6.5739   7.0137
     7.3437   7.4921   8.6650   9.6837  12.2991  17.3604  21.6874  22.6317
    29.3906

     occupation numbers 
     1.0000   1.0000   1.0000   1.0000   1.0000   1.0000   1.0000   1.0000
     1.0000   1.0000   1.0000   1.0000   1.0000   0.0000   0.0000   0.0000
     0.0000

          k = 0.1667 0.3333-0.5000 (   770 PWs)   bands (ev):

  -111.7924 -65.9945 -65.9892 -65.9787  -3.6471   6.2950   6.5003   7.0295
     7.3020   7.5194   8.8177   9.5724  12.3624  17.1956  21.6021  22.4806
    29.8799

     occupation numbers 
     1.0000   1.0000   1.0000   1.0000   1.0000   1.0000   1.0000   1.0000
     1.0000   1.0000   1.0000   1.0000   1.0000   0.0000   0.0000   0.0000
     0.0000

          k = 0.1667 0.4167 0.4167 (   761 PWs)   bands (ev):

  -111.7922 -65.9928 -65.9927 -65.9786  -3.5548   6.3982   6.5845   6.9977
     7.2171   7.6793   8.8331   9.3639  12.3534  16.6829  21.8525  22.3201
    29.8081

     occupation numbers 
     1.0000   1.0000   1.0000   1.0000   1.0000   1.0000   1.0000   1.0000
     1.0000   1.0000   1.0000   1.0000   1.0000   0.0000   0.0000   0.0000
     0.0000

          k = 0.1667 0.4167-0.5000 (   764 PWs)   bands (ev):

  -111.7921 -65.9941 -65.9927 -65.9785  -3.4930   6.4855   6.5115   7.0114
     7.1308   7.7479   9.0034   9.2072  12.3796  16.3880  21.9654  22.1745
    30.2388

     occupation numbers 
     1.0000   1.0000   1.0000   1.0000   1.0000   1.0000   1.0000   1.0000
     1.0000   1.0000   1.0000   1.0000   1.0000   0.0000   0.0000   0.0000
     0.0000

          k = 0.1667-0.5000-0.5000 (   760 PWs)   bands (ev):

  -111.7920 -65.9939 -65.9939 -65.9784  -3.4345   6.5442   6.5442   6.9981
     7.0160   7.8483   9.1014   9.1014  12.3886  16.0493  22.0935  22.0935
    30.4117

     occupation numbers 
     1.0000   1.0000   1.0000   1.0000   1.0000   1.0000   1.0000   1.0000
     1.0000   1.0000   1.0000   1.0000   1.0000   0.0000   0.0000   0.0000
     0.0000

          k = 0.2500 0.2500 0.2500 (   751 PWs)   bands (ev):

  -111.7930 -65.9849 -65.9844 -65.9844  -4.1687   6.6022   6.6022   7.1697
     7.1697   7.3454   8.4080  11.1042  11.1042  17.7592  23.3860  23.3860
    27.0354

     occupation numbers 
     1.0000   1.0000   1.0000   1.0000   1.0000   1.0000   1.0000   1.0000
     1.0000   1.0000   1.0000   1.0000   1.0000   0.0000   0.0000   0.0000
     0.0000

          k = 0.2500 0.2500 0.3333 (   757 PWs)   bands (ev):

  -111.7927 -65.9895 -65.9844 -65.9841  -3.9215   6.4493   6.4881   7.1326
     7.2990   7.4036   8.4233  10.6115  11.5870  17.8596  22.3888  22.7180
    27.5932

     occupation numbers 
     1.0000   1.0000   1.0000   1.0000   1.0000   1.0000   1.0000   1.0000
     1.0000   1.0000   1.0000   1.0000   1.0000   0.0000   0.0000   0.0000
     0.0000

          k = 0.2500 0.2500 0.4167 (   757 PWs)   bands (ev):

  -111.7924 -65.9931 -65.9841 -65.9838  -3.7265   6.2246   6.3997   7.1235
     7.3264   7.3899   8.7383  10.2522  11.9562  17.9170  21.5011  22.1819
    28.4929

     occupation numbers 
     1.0000   1.0000   1.0000   1.0000   1.0000   1.0000   1.0000   1.0000
     1.0000   1.0000   1.0000   1.0000   1.0000   0.0000   0.0000   0.0000
     0.0000

          k = 0.2500 0.2500-0.5000 (   764 PWs)   bands (ev):

  -111.7923 -65.9945 -65.9840 -65.9838  -3.6517   6.1206   6.3672   7.1225
     7.2899   7.4164   8.9394  10.0845  12.0965  17.9385  21.1619  21.9755
    28.9740

     occupation numbers 
     1.0000   1.0000   1.0000   1.0000   1.0000   1.0000   1.0000   1.0000
     1.0000   1.0000   1.0000   1.0000   1.0000   0.0000   0.0000   0.0000
     0.0000

          k = 0.2500 0.3333 0.3333 (   763 PWs)   bands (ev):

  -111.7923 -65.9893 -65.9890 -65.9839  -3.6927   6.3208   6.4228   7.1956
     7.3010   7.4247   8.5890  10.5281  11.6200  17.7701  21.7186  22.0858
    27.6603

     occupation numbers 
     1.0000   1.0000   1.0000   1.0000   1.0000   1.0000   1.0000   1.0000
     1.0000   1.0000   1.0000   1.0000   1.0000   0.0000   0.0000   0.0000
     0.0000

          k = 0.2500 0.3333 0.4167 (   761 PWs)   bands (ev):

  -111.7921 -65.9927 -65.9888 -65.9837  -3.5131   6.2184   6.3053   7.1113
     7.2325   7.5427   9.0142  10.2050  11.8875  17.5943  21.1875  21.5420
    28.1259

     occupation numbers 
     1.0000   1.0000   1.0000   1.0000   1.0000   1.0000   1.0000   1.0000
     1.0000   1.0000   1.0000   1.0000   1.0000   0.0000   0.0000   0.0000
     0.0000

          k = 0.2500 0.3333-0.5000 (   764 PWs)   bands (ev):

  -111.7920 -65.9940 -65.9887 -65.9836  -3.4444   6.1844   6.2393   7.0495
     7.2336   7.5825   9.3158   9.9675  12.0120  17.4939  21.1215  21.2113
    28.4097

     occupation numbers 
     1.0000   1.0000   1.0000   1.0000   1.0000   1.0000   1.0000   1.0000
     1.0000   1.0000   1.0000   1.0000   1.0000   0.0000   0.0000   0.0000
     0.0000

          k = 0.2500 0.4167 0.4167 (   764 PWs)   bands (ev):

  -111.7919 -65.9925 -65.9923 -65.9834  -3.3461   6.1688   6.2557   6.8652
     7.2616   7.7146   9.4094  10.0770  11.9747  17.0953  20.9190  21.2492
    27.9716

     occupation numbers 
     1.0000   1.0000   1.0000   1.0000   1.0000   1.0000   1.0000   1.0000
     1.0000   1.0000   1.0000   1.0000   1.0000   0.0000   0.0000   0.0000
     0.0000

          k = 0.2500 0.4167-0.5000 (   756 PWs)   bands (ev):

  -111.7917 -65.9936 -65.9922 -65.9832  -3.2824   6.1891   6.1930   6.7613
     7.2701   7.7775   9.7078   9.9066  12.0342  16.8449  20.9810  21.0144
    27.9375

     occupation numbers 
     1.0000   1.0000   1.0000   1.0000   1.0000   1.0000   1.0000   1.0000
     1.0000   1.0000   1.0000   1.0000   1.0000   0.0000   0.0000   0.0000
     0.0000

          k = 0.2500-0.5000-0.5000 (   756 PWs)   bands (ev):

  -111.7917 -65.9935 -65.9935 -65.9832  -3.2207   6.1906   6.1906   6.6232
     7.2800   7.8529   9.8908   9.8908  12.0558  16.5326  20.9604  20.9604
    27.7457

     occupation numbers 
     1.0000   1.0000   1.0000   1.0000   1.0000   1.0000   1.0000   1.0000
     1.0000   1.0000   1.0000   1.0000   1.0000   0.0000   0.0000   0.0000
     0.0000

          k = 0.3333 0.3333 0.3333 (   756 PWs)   bands (ev):

  -111.7920 -65.9890 -65.9885 -65.9885  -3.4690   6.2220   6.2220   7.0143
     7.4425   7.4425   8.9733  11.1345  11.1345  17.7998  21.1473  21.1473
    27.1657

     occupation numbers 
     1.0000   1.0000   1.0000   1.0000   1.0000   1.0000   1.0000   1.0000
     1.0000   1.0000   1.0000   1.0000   1.0000   0.0000   0.0000   0.0000
     0.0000

          k = 0.3333 0.3333 0.4167 (   754 PWs)   bands (ev):

  -111.7917 -65.9922 -65.9885 -65.9883  -3.2933   6.0940   6.1101   6.7649
     7.4545   7.6059   9.5109  10.6887  11.6130  17.7359  20.4162  20.6747
    26.9902

     occupation numbers 
     1.0000   1.0000   1.0000   1.0000   1.0000   1.0000   1.0000   1.0000
     1.0000   1.0000   1.0000   1.0000   1.0000   0.0000   0.0000   0.0000
     0.0000

          k = 0.3333 0.3333-0.5000 (   748 PWs)   bands (ev):

  -111.7916 -65.9935 -65.9883 -65.9881  -3.2261   6.0502   6.0556   6.6752
     7.4587   7.6622   9.9044  10.3597  11.8003  17.6820  20.1359  20.5102
    26.9492

     occupation numbers 
     1.0000   1.0000   1.0000   1.0000   1.0000   1.0000   1.0000   1.0000
     1.0000   1.0000   1.0000   1.0000   1.0000   0.0000   0.0000   0.0000
     0.0000

          k = 0.3333 0.4167 0.4167 (   752 PWs)   bands (ev):

  -111.7915 -65.9920 -65.9918 -65.9881  -3.1206   5.9801   6.0117   6.4570
     7.5373   7.7329  10.0537  10.8040  11.6519  17.6043  19.9160  20.1377
    26.1325

     occupation numbers 
     1.0000   1.0000   1.0000   1.0000   1.0000   1.0000   1.0000   1.0000
     1.0000   1.0000   1.0000   1.0000   1.0000   0.0000   0.0000   0.0000
     0.0000

          k = 0.3333 0.4167-0.5000 (   750 PWs)   bands (ev):

  -111.7914 -65.9931 -65.9918 -65.9880  -3.0545   5.9513   5.9648   6.3379
     7.5507   7.7943  10.4424  10.6057  11.7643  17.4560  19.7650  19.9925
    25.8001

     occupation numbers 
     1.0000   1.0000   1.0000   1.0000   1.0000   1.0000   1.0000   1.0000
     1.0000   1.0000   1.0000   1.0000   1.0000   0.0000   0.0000   0.0000
     0.0000

          k = 0.3333-0.5000-0.5000 (   752 PWs)   bands (ev):

  -111.7913 -65.9930 -65.9930 -65.9880  -2.9889   5.9327   5.9327   6.1924
     7.5684   7.8577  10.6762  10.6762  11.7875  17.2277  19.7883  19.7883
    25.3444

     occupation numbers 
     1.0000   1.0000   1.0000   1.0000   1.0000   1.0000   1.0000   1.0000
     1.0000   1.0000   1.0000   1.0000   1.0000   0.0000   0.0000   0.0000
     0.0000

          k = 0.4167 0.4167 0.4167 (   756 PWs)   bands (ev):

  -111.7913 -65.9918 -65.9915 -65.9915  -2.9428   5.8623   5.8623   6.1244
     7.7427   7.7427  10.6537  11.3906  11.3906  17.9771  19.2685  19.2685
    24.7114

     occupation numbers 
     1.0000   1.0000   1.0000   1.0000   1.0000   1.0000   1.0000   1.0000
     1.0000   1.0000   1.0000   1.0000   1.0000   0.0000   0.0000   0.0000
     0.0000

          k = 0.4167 0.4167-0.5000 (   758 PWs)   bands (ev):

  -111.7912 -65.9928 -65.9917 -65.9915  -2.8746   5.8122   5.8240   5.9951
     7.7458   7.8179  11.0571  11.1400  11.6264  18.0060  18.9301  19.1828
    24.1404

     occupation numbers 
     1.0000   1.0000   1.0000   1.0000   1.0000   1.0000   1.0000   1.0000
     1.0000   1.0000   1.0000   1.0000   1.0000   0.0000   0.0000   0.0000
     0.0000

          k = 0.4167-0.5000-0.5000 (   740 PWs)   bands (ev):

  -111.7911 -65.9925 -65.9925 -65.9915  -2.8054   5.7765   5.7765   5.8534
     7.7830   7.8612  11.3120  11.3120  11.6241  18.0418  18.8670  18.8670
    23.4500

     occupation numbers 
     1.0000   1.0000   1.0000   1.0000   1.0000   1.0000   1.0000   1.0000
     1.0000   1.0000   1.0000   1.0000   1.0000   0.0000   0.0000   0.0000
     0.0000

          k =-0.5000-0.5000-0.5000 (   720 PWs)   bands (ev):

  -111.7909 -65.9924 -65.9924 -65.9924  -2.7347   5.7242   5.7242   5.7242
     7.8624   7.8624  11.5703  11.5703  11.5703  18.5051  18.5051  18.5051
    22.6171

     occupation numbers 
     1.0000   1.0000   1.0000   1.0000   1.0000   1.0000   1.0000   1.0000
     1.0000   1.0000   1.0000   1.0000   1.0000   0.0000   0.0000   0.0000
     0.0000

     the Fermi energy is    13.6455 ev

     WARNING: integrated charge=    26.00862714, expected=    26.00000000

!    total energy              =    -503.17046415 Ry
     estimated scf accuracy    <          3.0E-09 Ry
     smearing contrib. (-TS)   =       0.00000818 Ry
     internal energy E=F+TS    =    -503.17047233 Ry

     The total energy is F=E-TS. E is the sum of the following terms:
     one-electron contribution =    -348.39122531 Ry
     hartree contribution      =     188.35570513 Ry
     xc contribution           =     -49.74335661 Ry
     ewald contribution        =    -283.86135708 Ry
     one-center paw contrib.   =      -9.53023846 Ry
      -> PAW hartree energy AE =      25.78423647 Ry
      -> PAW hartree energy PS =     -25.66931104 Ry
      -> PAW xc energy AE      =     -16.62290482 Ry
      -> PAW xc energy PS      =       6.97774093 Ry
      -> total E_H with PAW    =     188.47063056 Ry
      -> total E_XC with PAW   =     -59.38852049 Ry

     convergence has been achieved in   9 iterations

     Forces acting on atoms (cartesian axes, Ry/au):

     atom    1 type  2   force =     0.00000000    0.00000000    0.00000000
     atom    2 type  1   force =     0.00000000    0.00000000    0.00000000
     The non-local contrib.  to forces
     atom    1 type  2   force =     0.00000000    0.00000000    0.00000000
     atom    2 type  1   force =     0.00000000    0.00000000    0.00000000
     The ionic contribution  to forces
     atom    1 type  2   force =    -0.00000000   -0.00000000   -0.00000000
     atom    2 type  1   force =     0.00000000    0.00000000    0.00000000
     The local contribution  to forces
     atom    1 type  2   force =     0.00000000   -0.00000000    0.00000000
     atom    2 type  1   force =     0.00000000    0.00000000    0.00000000
     The core correction contribution to forces
     atom    1 type  2   force =     0.00000000    0.00000000    0.00000000
     atom    2 type  1   force =     0.00000000    0.00000000    0.00000000
     The Hubbard contrib.    to forces
     atom    1 type  2   force =     0.00000000    0.00000000    0.00000000
     atom    2 type  1   force =     0.00000000    0.00000000    0.00000000
     The SCF correction term to forces
     atom    1 type  2   force =     0.00000000   -0.00000000    0.00000000
     atom    2 type  1   force =    -0.00000000   -0.00000000    0.00000000

     Total force =     0.000000     Total SCF correction =     0.000000


     Computing stress (Cartesian axis) and pressure

          total   stress  (Ry/bohr**3)                   (kbar)     P=       60.09
   0.00040849   0.00000000   0.00000000           60.09        0.00        0.00
   0.00000000   0.00040849   0.00000000            0.00       60.09        0.00
   0.00000000   0.00000000   0.00040849            0.00        0.00       60.09

     kinetic stress (kbar)  43827.17      0.00      0.00
                                0.00  43827.17      0.00
                                0.00      0.00  43827.17

     local   stress (kbar)  12142.24      0.00      0.00
                                0.00  12142.24     -0.00
                                0.00     -0.00  12142.24

     nonloc. stress (kbar)   -962.15      0.00      0.00
                                0.00   -962.15      0.00
                                0.00      0.00   -962.15

     hartree stress (kbar)  72314.86     -0.00     -0.00
                               -0.00  72314.86      0.00
                               -0.00      0.00  72314.86

     exc-cor stress (kbar) -17790.42      0.00     -0.00
                                0.00 -17790.42     -0.00
                               -0.00     -0.00 -17790.42

     corecor stress (kbar)   -489.54      0.00      0.00
                                0.00   -489.54      0.00
                                0.00      0.00   -489.54

     ewald   stress (kbar)-108982.06     -0.00     -0.00
                               -0.00-108982.06     -0.00
                               -0.00     -0.00-108982.06

     hubbard stress (kbar)      0.00      0.00      0.00
                                0.00      0.00      0.00
                                0.00      0.00      0.00

     DFT-D   stress (kbar)      0.00      0.00      0.00
                                0.00      0.00      0.00
                                0.00      0.00      0.00

     XDM     stress (kbar)      0.00      0.00      0.00
                                0.00      0.00      0.00
                                0.00      0.00      0.00

     dft-nl  stress (kbar)      0.00      0.00      0.00
                                0.00      0.00      0.00
                                0.00      0.00      0.00

     TS-vdW  stress (kbar)      0.00      0.00      0.00
                                0.00      0.00      0.00
                                0.00      0.00      0.00

     MDB     stress (kbar)      0.00      0.00      0.00
                                0.00      0.00      0.00
                                0.00      0.00      0.00

     3D-RISM stress (kbar)      0.00      0.00      0.00
                                0.00      0.00      0.00
                                0.00      0.00      0.00


     Writing all to output data dir ./temp_cubic/aiida.save/ :
     XML data file, charge density, pseudopotentials, collected wavefunctions

     init_run     :    304.73s CPU     13.31s WALL (       1 calls)
     electrons    :   4512.80s CPU    194.31s WALL (       1 calls)
     forces       :     38.94s CPU      1.65s WALL (       1 calls)
     stress       :     11.49s CPU      0.70s WALL (       1 calls)

     Called by init_run:
     wfcinit      :    297.78s CPU     12.76s WALL (       1 calls)
     wfcinit:atom :      6.11s CPU      0.22s WALL (      84 calls)
     wfcinit:wfcr :    286.36s CPU     12.31s WALL (      84 calls)
     potinit      :      3.14s CPU      0.16s WALL (       1 calls)
     hinit0       :      2.06s CPU      0.28s WALL (       1 calls)

     Called by electrons:
     c_bands      :   3756.90s CPU    161.56s WALL (       9 calls)
     sum_band     :    737.81s CPU     31.78s WALL (       9 calls)
     v_of_rho     :      3.22s CPU      0.16s WALL (      10 calls)
     v_h          :      1.44s CPU      0.06s WALL (      10 calls)
     v_xc         :      2.25s CPU      0.12s WALL (      12 calls)
     newd         :      7.08s CPU      0.46s WALL (      10 calls)
     PAW_pot      :      9.75s CPU      0.42s WALL (      10 calls)
     mix_rho      :      0.70s CPU      0.04s WALL (       9 calls)

     Called by c_bands:
     init_us_2    :     42.76s CPU      2.10s WALL (    1764 calls)
     cegterg      :   3652.04s CPU    157.06s WALL (     756 calls)

     Called by sum_band:
     sum_band:wei :      0.20s CPU      0.02s WALL (       9 calls)
     sum_band:loo :    733.89s CPU     31.31s WALL (       9 calls)
     sum_band:buf :      0.91s CPU      0.04s WALL (     756 calls)
     sum_band:ini :     17.71s CPU      0.86s WALL (     756 calls)
     sum_band:cal :     10.21s CPU      0.40s WALL (     756 calls)
     sum_band:bec :     41.97s CPU      1.65s WALL (     756 calls)
     addusdens    :      3.55s CPU      0.42s WALL (       9 calls)
                                        0.00s GPU  (       9 calls)
     addusd:skk   :      0.00s CPU      0.00s WALL (      18 calls)
                                        0.00s GPU  (      18 calls)

     Called by *egterg:
     cdiaghg      :     16.42s CPU      0.70s WALL (    2389 calls)
     cegterg:over :     34.33s CPU      1.46s WALL (    1633 calls)
     cegterg:upda :     60.01s CPU      2.56s WALL (    1633 calls)
     cegterg:last :     53.93s CPU      2.05s WALL (    1456 calls)
     h_psi        :   3541.48s CPU    152.70s WALL (    2473 calls)
     s_psi        :     26.83s CPU      1.13s WALL (    2473 calls)
     g_psi        :     56.03s CPU      2.51s WALL (    1633 calls)

     Called by h_psi:
     h_psi:calbec :     23.19s CPU      1.07s WALL (    2473 calls)
     vloc_psi     :   3395.64s CPU    146.32s WALL (    2473 calls)
     add_vuspsi   :     24.96s CPU      1.16s WALL (    2473 calls)

     General routines
     calbec       :     37.23s CPU      1.66s WALL (    3649 calls)
     fft          :      1.03s CPU      0.07s WALL (     153 calls)
     ffts         :      0.00s CPU      0.00s WALL (      19 calls)
     fftw         :    167.33s CPU      7.14s WALL (   75312 calls)
     interpolate  :      0.01s CPU      0.01s WALL (      10 calls)

     Parallel routines

     PAW routines
     PAW_pot      :      9.75s CPU      0.42s WALL (      10 calls)
     PAW_symme    :      0.00s CPU      0.00s WALL (      19 calls)

     PWSCF        :      1h21m CPU   3m31.52s WALL


   This run was terminated on:  21:14:38   7Jun2024            

=------------------------------------------------------------------------------=
   JOB DONE.
=------------------------------------------------------------------------------=
