
     Program PWSCF v.7.3.1 starts on 12Jun2024 at 13:27:37 

     This program is part of the open-source Quantum ESPRESSO suite
     for quantum simulation of materials; please cite
         "P. Giannozzi et al., J. Phys.:Condens. Matter 21 395502 (2009);
         "P. Giannozzi et al., J. Phys.:Condens. Matter 29 465901 (2017);
         "P. Giannozzi et al., J. Chem. Phys. 152 154105 (2020);
          URL http://www.quantum-espresso.org", 
     in publications or presentations arising from this work. More details at
     http://www.quantum-espresso.org/quote

     Parallel version (MPI & OpenMP), running on      24 processor cores
     Number of MPI processes:                 1
     Threads/MPI process:                    24

     MPI processes distributed on     1 nodes
     5534 MiB available memory on the printing compute node when the environment starts

     Waiting for input...
     Reading input from standard input

     Current dimensions of program PWSCF are:
     Max number of different atomic species (ntypx) = 10
     Max number of k-points (npk) =  40000
     Max angular momentum in pseudopotentials (lmaxx) =  4
     file O.pbe-n-kjpaw_psl.0.1.UPF: wavefunction(s)  2P renormalized
     Message from routine setup:
     using ibrav=0 with symmetry is DISCOURAGED, use correct ibrav instead

     Subspace diagonalization in iterative solution of the eigenvalue problem:
     a serial algorithm will be used


     G-vector sticks info
     --------------------
     sticks:   dense  smooth     PW     G-vecs:    dense   smooth      PW
     Sum        1649     829    249                50301    17845    2969

     Using Slab Decomposition



     bravais-lattice index     =            0
     lattice parameter (alat)  =       5.0869  a.u.
     unit-cell volume          =     131.6291 (a.u.)^3
     number of atoms/cell      =            2
     number of atomic types    =            2
     number of electrons       =        26.00
     number of Kohn-Sham states=           17
     kinetic-energy cutoff     =     100.0000  Ry
     charge density cutoff     =     800.0000  Ry
     scf convergence threshold =      1.0E-08
     mixing beta               =       0.4000
     number of iterations used =            8  plain     mixing
     Exchange-correlation= SLA  PW   PBE  PBE
                           (   1   4   3   4   0   0   0)

     celldm(1)=   5.086871  celldm(2)=   0.000000  celldm(3)=   0.000000
     celldm(4)=   0.000000  celldm(5)=   0.000000  celldm(6)=   0.000000

     crystal axes: (cart. coord. in units of alat)
               a(1) = (   1.000000   0.000000   0.000000 )  
               a(2) = (   0.000000   1.000000   0.000000 )  
               a(3) = (   0.000000   0.000000   1.000000 )  

     reciprocal axes: (cart. coord. in units 2 pi/alat)
               b(1) = (  1.000000  0.000000  0.000000 )  
               b(2) = (  0.000000  1.000000  0.000000 )  
               b(3) = (  0.000000  0.000000  1.000000 )  


     PseudoPot. # 1 for O  read from file:
     ../SSSP_1.3.0_PBE_efficiency/O.pbe-n-kjpaw_psl.0.1.UPF
     MD5 check sum: 0234752ac141de4415c5fc33072bef88
     Pseudo is Projector augmented-wave + core cor, Zval =  6.0
     Generated using "atomic" code by A. Dal Corso  v.5.0.99 svn rev. 10869
     Shape of augmentation charge: BESSEL
     Using radial grid of 1095 points,  4 beta functions with: 
                l(1) =   0
                l(2) =   0
                l(3) =   1
                l(4) =   1
     Q(r) pseudized with 0 coefficients 


     PseudoPot. # 2 for Zn read from file:
     ../SSSP_1.3.0_PBE_efficiency/Zn_pbe_v1.uspp.F.UPF
     MD5 check sum: df62231357ef9e81f77b2b3087fa5675
     Pseudo is Ultrasoft, Zval = 20.0
     Generated by new atomic code, or converted to UPF format
     Using radial grid of  943 points,  6 beta functions with: 
                l(1) =   0
                l(2) =   0
                l(3) =   1
                l(4) =   1
                l(5) =   2
                l(6) =   2
     Q(r) pseudized with  8 coefficients,  rinner =    1.100   1.100   1.100
                                                       1.100   1.100

     atomic species   valence    mass     pseudopotential
     O                 6.00    15.99940     O ( 1.00)
     Zn               20.00    65.38000     Zn( 1.00)

     48 Sym. Ops., with inversion, found


                                    s                        frac. trans.

      isym =  1     identity                                     

 cryst.   s( 1) = (     1          0          0      )
                  (     0          1          0      )
                  (     0          0          1      )

 cart.    s( 1) = (  1.0000000  0.0000000  0.0000000 )
                  (  0.0000000  1.0000000  0.0000000 )
                  (  0.0000000  0.0000000  1.0000000 )


      isym =  2     180 deg rotation - cart. axis [0,0,1]        

 cryst.   s( 2) = (    -1          0          0      )
                  (     0         -1          0      )
                  (     0          0          1      )

 cart.    s( 2) = ( -1.0000000  0.0000000  0.0000000 )
                  (  0.0000000 -1.0000000  0.0000000 )
                  (  0.0000000  0.0000000  1.0000000 )


      isym =  3     180 deg rotation - cart. axis [0,1,0]        

 cryst.   s( 3) = (    -1          0          0      )
                  (     0          1          0      )
                  (     0          0         -1      )

 cart.    s( 3) = ( -1.0000000  0.0000000  0.0000000 )
                  (  0.0000000  1.0000000  0.0000000 )
                  (  0.0000000  0.0000000 -1.0000000 )


      isym =  4     180 deg rotation - cart. axis [1,0,0]        

 cryst.   s( 4) = (     1          0          0      )
                  (     0         -1          0      )
                  (     0          0         -1      )

 cart.    s( 4) = (  1.0000000  0.0000000  0.0000000 )
                  (  0.0000000 -1.0000000  0.0000000 )
                  (  0.0000000  0.0000000 -1.0000000 )


      isym =  5     180 deg rotation - cart. axis [1,1,0]        

 cryst.   s( 5) = (     0          1          0      )
                  (     1          0          0      )
                  (     0          0         -1      )

 cart.    s( 5) = (  0.0000000  1.0000000  0.0000000 )
                  (  1.0000000  0.0000000  0.0000000 )
                  (  0.0000000  0.0000000 -1.0000000 )


      isym =  6     180 deg rotation - cart. axis [1,-1,0]       

 cryst.   s( 6) = (     0         -1          0      )
                  (    -1          0          0      )
                  (     0          0         -1      )

 cart.    s( 6) = (  0.0000000 -1.0000000  0.0000000 )
                  ( -1.0000000  0.0000000  0.0000000 )
                  (  0.0000000  0.0000000 -1.0000000 )


      isym =  7      90 deg rotation - cart. axis [0,0,-1]       

 cryst.   s( 7) = (     0         -1          0      )
                  (     1          0          0      )
                  (     0          0          1      )

 cart.    s( 7) = (  0.0000000  1.0000000  0.0000000 )
                  ( -1.0000000  0.0000000  0.0000000 )
                  (  0.0000000  0.0000000  1.0000000 )


      isym =  8      90 deg rotation - cart. axis [0,0,1]        

 cryst.   s( 8) = (     0          1          0      )
                  (    -1          0          0      )
                  (     0          0          1      )

 cart.    s( 8) = (  0.0000000 -1.0000000  0.0000000 )
                  (  1.0000000  0.0000000  0.0000000 )
                  (  0.0000000  0.0000000  1.0000000 )


      isym =  9     180 deg rotation - cart. axis [1,0,1]        

 cryst.   s( 9) = (     0          0          1      )
                  (     0         -1          0      )
                  (     1          0          0      )

 cart.    s( 9) = (  0.0000000  0.0000000  1.0000000 )
                  (  0.0000000 -1.0000000  0.0000000 )
                  (  1.0000000  0.0000000  0.0000000 )


      isym = 10     180 deg rotation - cart. axis [-1,0,1]       

 cryst.   s(10) = (     0          0         -1      )
                  (     0         -1          0      )
                  (    -1          0          0      )

 cart.    s(10) = (  0.0000000  0.0000000 -1.0000000 )
                  (  0.0000000 -1.0000000  0.0000000 )
                  ( -1.0000000  0.0000000  0.0000000 )


      isym = 11      90 deg rotation - cart. axis [0,1,0]        

 cryst.   s(11) = (     0          0         -1      )
                  (     0          1          0      )
                  (     1          0          0      )

 cart.    s(11) = (  0.0000000  0.0000000  1.0000000 )
                  (  0.0000000  1.0000000  0.0000000 )
                  ( -1.0000000  0.0000000  0.0000000 )


      isym = 12      90 deg rotation - cart. axis [0,-1,0]       

 cryst.   s(12) = (     0          0          1      )
                  (     0          1          0      )
                  (    -1          0          0      )

 cart.    s(12) = (  0.0000000  0.0000000 -1.0000000 )
                  (  0.0000000  1.0000000  0.0000000 )
                  (  1.0000000  0.0000000  0.0000000 )


      isym = 13     180 deg rotation - cart. axis [0,1,1]        

 cryst.   s(13) = (    -1          0          0      )
                  (     0          0          1      )
                  (     0          1          0      )

 cart.    s(13) = ( -1.0000000  0.0000000  0.0000000 )
                  (  0.0000000  0.0000000  1.0000000 )
                  (  0.0000000  1.0000000  0.0000000 )


      isym = 14     180 deg rotation - cart. axis [0,1,-1]       

 cryst.   s(14) = (    -1          0          0      )
                  (     0          0         -1      )
                  (     0         -1          0      )

 cart.    s(14) = ( -1.0000000  0.0000000  0.0000000 )
                  (  0.0000000  0.0000000 -1.0000000 )
                  (  0.0000000 -1.0000000  0.0000000 )


      isym = 15      90 deg rotation - cart. axis [-1,0,0]       

 cryst.   s(15) = (     1          0          0      )
                  (     0          0         -1      )
                  (     0          1          0      )

 cart.    s(15) = (  1.0000000  0.0000000  0.0000000 )
                  (  0.0000000  0.0000000  1.0000000 )
                  (  0.0000000 -1.0000000  0.0000000 )


      isym = 16      90 deg rotation - cart. axis [1,0,0]        

 cryst.   s(16) = (     1          0          0      )
                  (     0          0          1      )
                  (     0         -1          0      )

 cart.    s(16) = (  1.0000000  0.0000000  0.0000000 )
                  (  0.0000000  0.0000000 -1.0000000 )
                  (  0.0000000  1.0000000  0.0000000 )


      isym = 17     120 deg rotation - cart. axis [-1,-1,-1]     

 cryst.   s(17) = (     0          0          1      )
                  (     1          0          0      )
                  (     0          1          0      )

 cart.    s(17) = (  0.0000000  1.0000000  0.0000000 )
                  (  0.0000000  0.0000000  1.0000000 )
                  (  1.0000000  0.0000000  0.0000000 )


      isym = 18     120 deg rotation - cart. axis [-1,1,1]       

 cryst.   s(18) = (     0          0         -1      )
                  (    -1          0          0      )
                  (     0          1          0      )

 cart.    s(18) = (  0.0000000 -1.0000000  0.0000000 )
                  (  0.0000000  0.0000000  1.0000000 )
                  ( -1.0000000  0.0000000  0.0000000 )


      isym = 19     120 deg rotation - cart. axis [1,1,-1]       

 cryst.   s(19) = (     0          0         -1      )
                  (     1          0          0      )
                  (     0         -1          0      )

 cart.    s(19) = (  0.0000000  1.0000000  0.0000000 )
                  (  0.0000000  0.0000000 -1.0000000 )
                  ( -1.0000000  0.0000000  0.0000000 )


      isym = 20     120 deg rotation - cart. axis [1,-1,1]       

 cryst.   s(20) = (     0          0          1      )
                  (    -1          0          0      )
                  (     0         -1          0      )

 cart.    s(20) = (  0.0000000 -1.0000000  0.0000000 )
                  (  0.0000000  0.0000000 -1.0000000 )
                  (  1.0000000  0.0000000  0.0000000 )


      isym = 21     120 deg rotation - cart. axis [1,1,1]        

 cryst.   s(21) = (     0          1          0      )
                  (     0          0          1      )
                  (     1          0          0      )

 cart.    s(21) = (  0.0000000  0.0000000  1.0000000 )
                  (  1.0000000  0.0000000  0.0000000 )
                  (  0.0000000  1.0000000  0.0000000 )


      isym = 22     120 deg rotation - cart. axis [-1,1,-1]      

 cryst.   s(22) = (     0         -1          0      )
                  (     0          0         -1      )
                  (     1          0          0      )

 cart.    s(22) = (  0.0000000  0.0000000  1.0000000 )
                  ( -1.0000000  0.0000000  0.0000000 )
                  (  0.0000000 -1.0000000  0.0000000 )


      isym = 23     120 deg rotation - cart. axis [1,-1,-1]      

 cryst.   s(23) = (     0         -1          0      )
                  (     0          0          1      )
                  (    -1          0          0      )

 cart.    s(23) = (  0.0000000  0.0000000 -1.0000000 )
                  ( -1.0000000  0.0000000  0.0000000 )
                  (  0.0000000  1.0000000  0.0000000 )


      isym = 24     120 deg rotation - cart. axis [-1,-1,1]      

 cryst.   s(24) = (     0          1          0      )
                  (     0          0         -1      )
                  (    -1          0          0      )

 cart.    s(24) = (  0.0000000  0.0000000 -1.0000000 )
                  (  1.0000000  0.0000000  0.0000000 )
                  (  0.0000000 -1.0000000  0.0000000 )


      isym = 25     inversion                                    

 cryst.   s(25) = (    -1          0          0      )
                  (     0         -1          0      )
                  (     0          0         -1      )

 cart.    s(25) = ( -1.0000000  0.0000000  0.0000000 )
                  (  0.0000000 -1.0000000  0.0000000 )
                  (  0.0000000  0.0000000 -1.0000000 )


      isym = 26     inv. 180 deg rotation - cart. axis [0,0,1]   

 cryst.   s(26) = (     1          0          0      )
                  (     0          1          0      )
                  (     0          0         -1      )

 cart.    s(26) = (  1.0000000  0.0000000  0.0000000 )
                  (  0.0000000  1.0000000  0.0000000 )
                  (  0.0000000  0.0000000 -1.0000000 )


      isym = 27     inv. 180 deg rotation - cart. axis [0,1,0]   

 cryst.   s(27) = (     1          0          0      )
                  (     0         -1          0      )
                  (     0          0          1      )

 cart.    s(27) = (  1.0000000  0.0000000  0.0000000 )
                  (  0.0000000 -1.0000000  0.0000000 )
                  (  0.0000000  0.0000000  1.0000000 )


      isym = 28     inv. 180 deg rotation - cart. axis [1,0,0]   

 cryst.   s(28) = (    -1          0          0      )
                  (     0          1          0      )
                  (     0          0          1      )

 cart.    s(28) = ( -1.0000000  0.0000000  0.0000000 )
                  (  0.0000000  1.0000000  0.0000000 )
                  (  0.0000000  0.0000000  1.0000000 )


      isym = 29     inv. 180 deg rotation - cart. axis [1,1,0]   

 cryst.   s(29) = (     0         -1          0      )
                  (    -1          0          0      )
                  (     0          0          1      )

 cart.    s(29) = (  0.0000000 -1.0000000  0.0000000 )
                  ( -1.0000000  0.0000000  0.0000000 )
                  (  0.0000000  0.0000000  1.0000000 )


      isym = 30     inv. 180 deg rotation - cart. axis [1,-1,0]  

 cryst.   s(30) = (     0          1          0      )
                  (     1          0          0      )
                  (     0          0          1      )

 cart.    s(30) = (  0.0000000  1.0000000  0.0000000 )
                  (  1.0000000  0.0000000  0.0000000 )
                  (  0.0000000  0.0000000  1.0000000 )


      isym = 31     inv.  90 deg rotation - cart. axis [0,0,-1]  

 cryst.   s(31) = (     0          1          0      )
                  (    -1          0          0      )
                  (     0          0         -1      )

 cart.    s(31) = (  0.0000000 -1.0000000  0.0000000 )
                  (  1.0000000  0.0000000  0.0000000 )
                  (  0.0000000  0.0000000 -1.0000000 )


      isym = 32     inv.  90 deg rotation - cart. axis [0,0,1]   

 cryst.   s(32) = (     0         -1          0      )
                  (     1          0          0      )
                  (     0          0         -1      )

 cart.    s(32) = (  0.0000000  1.0000000  0.0000000 )
                  ( -1.0000000  0.0000000  0.0000000 )
                  (  0.0000000  0.0000000 -1.0000000 )


      isym = 33     inv. 180 deg rotation - cart. axis [1,0,1]   

 cryst.   s(33) = (     0          0         -1      )
                  (     0          1          0      )
                  (    -1          0          0      )

 cart.    s(33) = (  0.0000000  0.0000000 -1.0000000 )
                  (  0.0000000  1.0000000  0.0000000 )
                  ( -1.0000000  0.0000000  0.0000000 )


      isym = 34     inv. 180 deg rotation - cart. axis [-1,0,1]  

 cryst.   s(34) = (     0          0          1      )
                  (     0          1          0      )
                  (     1          0          0      )

 cart.    s(34) = (  0.0000000  0.0000000  1.0000000 )
                  (  0.0000000  1.0000000  0.0000000 )
                  (  1.0000000  0.0000000  0.0000000 )


      isym = 35     inv.  90 deg rotation - cart. axis [0,1,0]   

 cryst.   s(35) = (     0          0          1      )
                  (     0         -1          0      )
                  (    -1          0          0      )

 cart.    s(35) = (  0.0000000  0.0000000 -1.0000000 )
                  (  0.0000000 -1.0000000  0.0000000 )
                  (  1.0000000  0.0000000  0.0000000 )


      isym = 36     inv.  90 deg rotation - cart. axis [0,-1,0]  

 cryst.   s(36) = (     0          0         -1      )
                  (     0         -1          0      )
                  (     1          0          0      )

 cart.    s(36) = (  0.0000000  0.0000000  1.0000000 )
                  (  0.0000000 -1.0000000  0.0000000 )
                  ( -1.0000000  0.0000000  0.0000000 )


      isym = 37     inv. 180 deg rotation - cart. axis [0,1,1]   

 cryst.   s(37) = (     1          0          0      )
                  (     0          0         -1      )
                  (     0         -1          0      )

 cart.    s(37) = (  1.0000000  0.0000000  0.0000000 )
                  (  0.0000000  0.0000000 -1.0000000 )
                  (  0.0000000 -1.0000000  0.0000000 )


      isym = 38     inv. 180 deg rotation - cart. axis [0,1,-1]  

 cryst.   s(38) = (     1          0          0      )
                  (     0          0          1      )
                  (     0          1          0      )

 cart.    s(38) = (  1.0000000  0.0000000  0.0000000 )
                  (  0.0000000  0.0000000  1.0000000 )
                  (  0.0000000  1.0000000  0.0000000 )


      isym = 39     inv.  90 deg rotation - cart. axis [-1,0,0]  

 cryst.   s(39) = (    -1          0          0      )
                  (     0          0          1      )
                  (     0         -1          0      )

 cart.    s(39) = ( -1.0000000  0.0000000  0.0000000 )
                  (  0.0000000  0.0000000 -1.0000000 )
                  (  0.0000000  1.0000000  0.0000000 )


      isym = 40     inv.  90 deg rotation - cart. axis [1,0,0]   

 cryst.   s(40) = (    -1          0          0      )
                  (     0          0         -1      )
                  (     0          1          0      )

 cart.    s(40) = ( -1.0000000  0.0000000  0.0000000 )
                  (  0.0000000  0.0000000  1.0000000 )
                  (  0.0000000 -1.0000000  0.0000000 )


      isym = 41     inv. 120 deg rotation - cart. axis [-1,-1,-1]

 cryst.   s(41) = (     0          0         -1      )
                  (    -1          0          0      )
                  (     0         -1          0      )

 cart.    s(41) = (  0.0000000 -1.0000000  0.0000000 )
                  (  0.0000000  0.0000000 -1.0000000 )
                  ( -1.0000000  0.0000000  0.0000000 )


      isym = 42     inv. 120 deg rotation - cart. axis [-1,1,1]  

 cryst.   s(42) = (     0          0          1      )
                  (     1          0          0      )
                  (     0         -1          0      )

 cart.    s(42) = (  0.0000000  1.0000000  0.0000000 )
                  (  0.0000000  0.0000000 -1.0000000 )
                  (  1.0000000  0.0000000  0.0000000 )


      isym = 43     inv. 120 deg rotation - cart. axis [1,1,-1]  

 cryst.   s(43) = (     0          0          1      )
                  (    -1          0          0      )
                  (     0          1          0      )

 cart.    s(43) = (  0.0000000 -1.0000000  0.0000000 )
                  (  0.0000000  0.0000000  1.0000000 )
                  (  1.0000000  0.0000000  0.0000000 )


      isym = 44     inv. 120 deg rotation - cart. axis [1,-1,1]  

 cryst.   s(44) = (     0          0         -1      )
                  (     1          0          0      )
                  (     0          1          0      )

 cart.    s(44) = (  0.0000000  1.0000000  0.0000000 )
                  (  0.0000000  0.0000000  1.0000000 )
                  ( -1.0000000  0.0000000  0.0000000 )


      isym = 45     inv. 120 deg rotation - cart. axis [1,1,1]   

 cryst.   s(45) = (     0         -1          0      )
                  (     0          0         -1      )
                  (    -1          0          0      )

 cart.    s(45) = (  0.0000000  0.0000000 -1.0000000 )
                  ( -1.0000000  0.0000000  0.0000000 )
                  (  0.0000000 -1.0000000  0.0000000 )


      isym = 46     inv. 120 deg rotation - cart. axis [-1,1,-1] 

 cryst.   s(46) = (     0          1          0      )
                  (     0          0          1      )
                  (    -1          0          0      )

 cart.    s(46) = (  0.0000000  0.0000000 -1.0000000 )
                  (  1.0000000  0.0000000  0.0000000 )
                  (  0.0000000  1.0000000  0.0000000 )


      isym = 47     inv. 120 deg rotation - cart. axis [1,-1,-1] 

 cryst.   s(47) = (     0          1          0      )
                  (     0          0         -1      )
                  (     1          0          0      )

 cart.    s(47) = (  0.0000000  0.0000000  1.0000000 )
                  (  1.0000000  0.0000000  0.0000000 )
                  (  0.0000000 -1.0000000  0.0000000 )


      isym = 48     inv. 120 deg rotation - cart. axis [-1,-1,1] 

 cryst.   s(48) = (     0         -1          0      )
                  (     0          0          1      )
                  (     1          0          0      )

 cart.    s(48) = (  0.0000000  0.0000000  1.0000000 )
                  ( -1.0000000  0.0000000  0.0000000 )
                  (  0.0000000  1.0000000  0.0000000 )


   Cartesian axes

     site n.     atom                  positions (alat units)
         1        Zn     tau(   1) = (   0.0000000   0.0000000   0.0000000  )
         2        O      tau(   2) = (   0.5000000   0.5000000   0.5000000  )

   Crystallographic axes

     site n.     atom                  positions (cryst. coord.)
         1        Zn     tau(   1) = (  0.0000000  0.0000000  0.0000000  )
         2        O      tau(   2) = (  0.5000000  0.5000000  0.5000000  )

     number of k points=    84  Marzari-Vanderbilt smearing, width (Ry)=  0.0294
                       cart. coord. in units 2pi/alat
        k(    1) = (   0.0000000   0.0000000   0.0000000), wk =   0.0011574
        k(    2) = (   0.0000000   0.0000000   0.0833333), wk =   0.0069444
        k(    3) = (   0.0000000   0.0000000   0.1666667), wk =   0.0069444
        k(    4) = (   0.0000000   0.0000000   0.2500000), wk =   0.0069444
        k(    5) = (   0.0000000   0.0000000   0.3333333), wk =   0.0069444
        k(    6) = (   0.0000000   0.0000000   0.4166667), wk =   0.0069444
        k(    7) = (   0.0000000   0.0000000  -0.5000000), wk =   0.0034722
        k(    8) = (   0.0000000   0.0833333   0.0833333), wk =   0.0138889
        k(    9) = (   0.0000000   0.0833333   0.1666667), wk =   0.0277778
        k(   10) = (   0.0000000   0.0833333   0.2500000), wk =   0.0277778
        k(   11) = (   0.0000000   0.0833333   0.3333333), wk =   0.0277778
        k(   12) = (   0.0000000   0.0833333   0.4166667), wk =   0.0277778
        k(   13) = (   0.0000000   0.0833333  -0.5000000), wk =   0.0138889
        k(   14) = (   0.0000000   0.1666667   0.1666667), wk =   0.0138889
        k(   15) = (   0.0000000   0.1666667   0.2500000), wk =   0.0277778
        k(   16) = (   0.0000000   0.1666667   0.3333333), wk =   0.0277778
        k(   17) = (   0.0000000   0.1666667   0.4166667), wk =   0.0277778
        k(   18) = (   0.0000000   0.1666667  -0.5000000), wk =   0.0138889
        k(   19) = (   0.0000000   0.2500000   0.2500000), wk =   0.0138889
        k(   20) = (   0.0000000   0.2500000   0.3333333), wk =   0.0277778
        k(   21) = (   0.0000000   0.2500000   0.4166667), wk =   0.0277778
        k(   22) = (   0.0000000   0.2500000  -0.5000000), wk =   0.0138889
        k(   23) = (   0.0000000   0.3333333   0.3333333), wk =   0.0138889
        k(   24) = (   0.0000000   0.3333333   0.4166667), wk =   0.0277778
        k(   25) = (   0.0000000   0.3333333  -0.5000000), wk =   0.0138889
        k(   26) = (   0.0000000   0.4166667   0.4166667), wk =   0.0138889
        k(   27) = (   0.0000000   0.4166667  -0.5000000), wk =   0.0138889
        k(   28) = (   0.0000000  -0.5000000  -0.5000000), wk =   0.0034722
        k(   29) = (   0.0833333   0.0833333   0.0833333), wk =   0.0092593
        k(   30) = (   0.0833333   0.0833333   0.1666667), wk =   0.0277778
        k(   31) = (   0.0833333   0.0833333   0.2500000), wk =   0.0277778
        k(   32) = (   0.0833333   0.0833333   0.3333333), wk =   0.0277778
        k(   33) = (   0.0833333   0.0833333   0.4166667), wk =   0.0277778
        k(   34) = (   0.0833333   0.0833333  -0.5000000), wk =   0.0138889
        k(   35) = (   0.0833333   0.1666667   0.1666667), wk =   0.0277778
        k(   36) = (   0.0833333   0.1666667   0.2500000), wk =   0.0555556
        k(   37) = (   0.0833333   0.1666667   0.3333333), wk =   0.0555556
        k(   38) = (   0.0833333   0.1666667   0.4166667), wk =   0.0555556
        k(   39) = (   0.0833333   0.1666667  -0.5000000), wk =   0.0277778
        k(   40) = (   0.0833333   0.2500000   0.2500000), wk =   0.0277778
        k(   41) = (   0.0833333   0.2500000   0.3333333), wk =   0.0555556
        k(   42) = (   0.0833333   0.2500000   0.4166667), wk =   0.0555556
        k(   43) = (   0.0833333   0.2500000  -0.5000000), wk =   0.0277778
        k(   44) = (   0.0833333   0.3333333   0.3333333), wk =   0.0277778
        k(   45) = (   0.0833333   0.3333333   0.4166667), wk =   0.0555556
        k(   46) = (   0.0833333   0.3333333  -0.5000000), wk =   0.0277778
        k(   47) = (   0.0833333   0.4166667   0.4166667), wk =   0.0277778
        k(   48) = (   0.0833333   0.4166667  -0.5000000), wk =   0.0277778
        k(   49) = (   0.0833333  -0.5000000  -0.5000000), wk =   0.0069444
        k(   50) = (   0.1666667   0.1666667   0.1666667), wk =   0.0092593
        k(   51) = (   0.1666667   0.1666667   0.2500000), wk =   0.0277778
        k(   52) = (   0.1666667   0.1666667   0.3333333), wk =   0.0277778
        k(   53) = (   0.1666667   0.1666667   0.4166667), wk =   0.0277778
        k(   54) = (   0.1666667   0.1666667  -0.5000000), wk =   0.0138889
        k(   55) = (   0.1666667   0.2500000   0.2500000), wk =   0.0277778
        k(   56) = (   0.1666667   0.2500000   0.3333333), wk =   0.0555556
        k(   57) = (   0.1666667   0.2500000   0.4166667), wk =   0.0555556
        k(   58) = (   0.1666667   0.2500000  -0.5000000), wk =   0.0277778
        k(   59) = (   0.1666667   0.3333333   0.3333333), wk =   0.0277778
        k(   60) = (   0.1666667   0.3333333   0.4166667), wk =   0.0555556
        k(   61) = (   0.1666667   0.3333333  -0.5000000), wk =   0.0277778
        k(   62) = (   0.1666667   0.4166667   0.4166667), wk =   0.0277778
        k(   63) = (   0.1666667   0.4166667  -0.5000000), wk =   0.0277778
        k(   64) = (   0.1666667  -0.5000000  -0.5000000), wk =   0.0069444
        k(   65) = (   0.2500000   0.2500000   0.2500000), wk =   0.0092593
        k(   66) = (   0.2500000   0.2500000   0.3333333), wk =   0.0277778
        k(   67) = (   0.2500000   0.2500000   0.4166667), wk =   0.0277778
        k(   68) = (   0.2500000   0.2500000  -0.5000000), wk =   0.0138889
        k(   69) = (   0.2500000   0.3333333   0.3333333), wk =   0.0277778
        k(   70) = (   0.2500000   0.3333333   0.4166667), wk =   0.0555556
        k(   71) = (   0.2500000   0.3333333  -0.5000000), wk =   0.0277778
        k(   72) = (   0.2500000   0.4166667   0.4166667), wk =   0.0277778
        k(   73) = (   0.2500000   0.4166667  -0.5000000), wk =   0.0277778
        k(   74) = (   0.2500000  -0.5000000  -0.5000000), wk =   0.0069444
        k(   75) = (   0.3333333   0.3333333   0.3333333), wk =   0.0092593
        k(   76) = (   0.3333333   0.3333333   0.4166667), wk =   0.0277778
        k(   77) = (   0.3333333   0.3333333  -0.5000000), wk =   0.0138889
        k(   78) = (   0.3333333   0.4166667   0.4166667), wk =   0.0277778
        k(   79) = (   0.3333333   0.4166667  -0.5000000), wk =   0.0277778
        k(   80) = (   0.3333333  -0.5000000  -0.5000000), wk =   0.0069444
        k(   81) = (   0.4166667   0.4166667   0.4166667), wk =   0.0092593
        k(   82) = (   0.4166667   0.4166667  -0.5000000), wk =   0.0138889
        k(   83) = (   0.4166667  -0.5000000  -0.5000000), wk =   0.0069444
        k(   84) = (  -0.5000000  -0.5000000  -0.5000000), wk =   0.0011574

                       cryst. coord.
        k(    1) = (   0.0000000   0.0000000   0.0000000), wk =   0.0011574
        k(    2) = (   0.0000000   0.0000000   0.0833333), wk =   0.0069444
        k(    3) = (   0.0000000   0.0000000   0.1666667), wk =   0.0069444
        k(    4) = (   0.0000000   0.0000000   0.2500000), wk =   0.0069444
        k(    5) = (   0.0000000   0.0000000   0.3333333), wk =   0.0069444
        k(    6) = (   0.0000000   0.0000000   0.4166667), wk =   0.0069444
        k(    7) = (   0.0000000   0.0000000  -0.5000000), wk =   0.0034722
        k(    8) = (   0.0000000   0.0833333   0.0833333), wk =   0.0138889
        k(    9) = (   0.0000000   0.0833333   0.1666667), wk =   0.0277778
        k(   10) = (   0.0000000   0.0833333   0.2500000), wk =   0.0277778
        k(   11) = (   0.0000000   0.0833333   0.3333333), wk =   0.0277778
        k(   12) = (   0.0000000   0.0833333   0.4166667), wk =   0.0277778
        k(   13) = (   0.0000000   0.0833333  -0.5000000), wk =   0.0138889
        k(   14) = (   0.0000000   0.1666667   0.1666667), wk =   0.0138889
        k(   15) = (   0.0000000   0.1666667   0.2500000), wk =   0.0277778
        k(   16) = (   0.0000000   0.1666667   0.3333333), wk =   0.0277778
        k(   17) = (   0.0000000   0.1666667   0.4166667), wk =   0.0277778
        k(   18) = (   0.0000000   0.1666667  -0.5000000), wk =   0.0138889
        k(   19) = (   0.0000000   0.2500000   0.2500000), wk =   0.0138889
        k(   20) = (   0.0000000   0.2500000   0.3333333), wk =   0.0277778
        k(   21) = (   0.0000000   0.2500000   0.4166667), wk =   0.0277778
        k(   22) = (   0.0000000   0.2500000  -0.5000000), wk =   0.0138889
        k(   23) = (   0.0000000   0.3333333   0.3333333), wk =   0.0138889
        k(   24) = (   0.0000000   0.3333333   0.4166667), wk =   0.0277778
        k(   25) = (   0.0000000   0.3333333  -0.5000000), wk =   0.0138889
        k(   26) = (   0.0000000   0.4166667   0.4166667), wk =   0.0138889
        k(   27) = (   0.0000000   0.4166667  -0.5000000), wk =   0.0138889
        k(   28) = (   0.0000000  -0.5000000  -0.5000000), wk =   0.0034722
        k(   29) = (   0.0833333   0.0833333   0.0833333), wk =   0.0092593
        k(   30) = (   0.0833333   0.0833333   0.1666667), wk =   0.0277778
        k(   31) = (   0.0833333   0.0833333   0.2500000), wk =   0.0277778
        k(   32) = (   0.0833333   0.0833333   0.3333333), wk =   0.0277778
        k(   33) = (   0.0833333   0.0833333   0.4166667), wk =   0.0277778
        k(   34) = (   0.0833333   0.0833333  -0.5000000), wk =   0.0138889
        k(   35) = (   0.0833333   0.1666667   0.1666667), wk =   0.0277778
        k(   36) = (   0.0833333   0.1666667   0.2500000), wk =   0.0555556
        k(   37) = (   0.0833333   0.1666667   0.3333333), wk =   0.0555556
        k(   38) = (   0.0833333   0.1666667   0.4166667), wk =   0.0555556
        k(   39) = (   0.0833333   0.1666667  -0.5000000), wk =   0.0277778
        k(   40) = (   0.0833333   0.2500000   0.2500000), wk =   0.0277778
        k(   41) = (   0.0833333   0.2500000   0.3333333), wk =   0.0555556
        k(   42) = (   0.0833333   0.2500000   0.4166667), wk =   0.0555556
        k(   43) = (   0.0833333   0.2500000  -0.5000000), wk =   0.0277778
        k(   44) = (   0.0833333   0.3333333   0.3333333), wk =   0.0277778
        k(   45) = (   0.0833333   0.3333333   0.4166667), wk =   0.0555556
        k(   46) = (   0.0833333   0.3333333  -0.5000000), wk =   0.0277778
        k(   47) = (   0.0833333   0.4166667   0.4166667), wk =   0.0277778
        k(   48) = (   0.0833333   0.4166667  -0.5000000), wk =   0.0277778
        k(   49) = (   0.0833333  -0.5000000  -0.5000000), wk =   0.0069444
        k(   50) = (   0.1666667   0.1666667   0.1666667), wk =   0.0092593
        k(   51) = (   0.1666667   0.1666667   0.2500000), wk =   0.0277778
        k(   52) = (   0.1666667   0.1666667   0.3333333), wk =   0.0277778
        k(   53) = (   0.1666667   0.1666667   0.4166667), wk =   0.0277778
        k(   54) = (   0.1666667   0.1666667  -0.5000000), wk =   0.0138889
        k(   55) = (   0.1666667   0.2500000   0.2500000), wk =   0.0277778
        k(   56) = (   0.1666667   0.2500000   0.3333333), wk =   0.0555556
        k(   57) = (   0.1666667   0.2500000   0.4166667), wk =   0.0555556
        k(   58) = (   0.1666667   0.2500000  -0.5000000), wk =   0.0277778
        k(   59) = (   0.1666667   0.3333333   0.3333333), wk =   0.0277778
        k(   60) = (   0.1666667   0.3333333   0.4166667), wk =   0.0555556
        k(   61) = (   0.1666667   0.3333333  -0.5000000), wk =   0.0277778
        k(   62) = (   0.1666667   0.4166667   0.4166667), wk =   0.0277778
        k(   63) = (   0.1666667   0.4166667  -0.5000000), wk =   0.0277778
        k(   64) = (   0.1666667  -0.5000000  -0.5000000), wk =   0.0069444
        k(   65) = (   0.2500000   0.2500000   0.2500000), wk =   0.0092593
        k(   66) = (   0.2500000   0.2500000   0.3333333), wk =   0.0277778
        k(   67) = (   0.2500000   0.2500000   0.4166667), wk =   0.0277778
        k(   68) = (   0.2500000   0.2500000  -0.5000000), wk =   0.0138889
        k(   69) = (   0.2500000   0.3333333   0.3333333), wk =   0.0277778
        k(   70) = (   0.2500000   0.3333333   0.4166667), wk =   0.0555556
        k(   71) = (   0.2500000   0.3333333  -0.5000000), wk =   0.0277778
        k(   72) = (   0.2500000   0.4166667   0.4166667), wk =   0.0277778
        k(   73) = (   0.2500000   0.4166667  -0.5000000), wk =   0.0277778
        k(   74) = (   0.2500000  -0.5000000  -0.5000000), wk =   0.0069444
        k(   75) = (   0.3333333   0.3333333   0.3333333), wk =   0.0092593
        k(   76) = (   0.3333333   0.3333333   0.4166667), wk =   0.0277778
        k(   77) = (   0.3333333   0.3333333  -0.5000000), wk =   0.0138889
        k(   78) = (   0.3333333   0.4166667   0.4166667), wk =   0.0277778
        k(   79) = (   0.3333333   0.4166667  -0.5000000), wk =   0.0277778
        k(   80) = (   0.3333333  -0.5000000  -0.5000000), wk =   0.0069444
        k(   81) = (   0.4166667   0.4166667   0.4166667), wk =   0.0092593
        k(   82) = (   0.4166667   0.4166667  -0.5000000), wk =   0.0138889
        k(   83) = (   0.4166667  -0.5000000  -0.5000000), wk =   0.0069444
        k(   84) = (  -0.5000000  -0.5000000  -0.5000000), wk =   0.0011574

     Dense  grid:    50301 G-vectors     FFT dimensions: (  45,  45,  45)

     Smooth grid:    17845 G-vectors     FFT dimensions: (  36,  36,  36)

     Dynamical RAM for                 wfc:       0.58 MB

     Dynamical RAM for     wfc (w. buffer):      49.01 MB

     Dynamical RAM for           str. fact:       1.54 MB

     Dynamical RAM for           local pot:       0.00 MB

     Dynamical RAM for          nlocal pot:       0.88 MB

     Dynamical RAM for                qrad:       4.54 MB

     Dynamical RAM for          rho,v,vnew:       4.39 MB

     Dynamical RAM for               rhoin:       1.46 MB

     Dynamical RAM for            rho*nmix:      12.28 MB

     Dynamical RAM for           G-vectors:       3.01 MB

     Dynamical RAM for          h,s,v(r/c):       0.05 MB

     Dynamical RAM for          <psi|beta>:       0.01 MB

     Dynamical RAM for                 psi:       1.15 MB

     Dynamical RAM for                hpsi:       1.15 MB

     Dynamical RAM for                spsi:       1.15 MB

     Dynamical RAM for      wfcinit/wfcrot:       1.16 MB

     Dynamical RAM for           addusdens:     143.53 MB

     Dynamical RAM for          addusforce:     143.92 MB

     Dynamical RAM for         addusstress:     154.27 MB

     Estimated static dynamical RAM per process >      70.61 MB

     Estimated max dynamical RAM per process >     237.17 MB

     Initial potential from superposition of free atoms

     starting charge      25.9999, renormalised to      26.0000
     Starting wfcs are   17 randomized atomic wfcs
     Checking if some PAW data can be deallocated... 

     total cpu time spent up to now is        5.7 secs

     Self-consistent Calculation

     iteration #  1     ecut=   100.00 Ry     beta= 0.40
     Davidson diagonalization with overlap

---- Real-time Memory Report at c_bands before calling an iterative solver
           200 MiB given to the printing process from OS
             0 MiB allocation reported by mallinfo(arena+hblkhd)
          5451 MiB available memory on the node where the printing process lives
------------------
     ethr =  1.00E-02,  avg # of iterations =  2.9

     total cpu time spent up to now is       19.8 secs

     WARNING: integrated charge=    26.00077778, expected=    26.00000000

     total energy              =    -503.04127883 Ry
     estimated scf accuracy    <       0.46948583 Ry

     iteration #  2     ecut=   100.00 Ry     beta= 0.40
     Davidson diagonalization with overlap

---- Real-time Memory Report at c_bands before calling an iterative solver
           286 MiB given to the printing process from OS
             0 MiB allocation reported by mallinfo(arena+hblkhd)
          5303 MiB available memory on the node where the printing process lives
------------------
     ethr =  1.81E-03,  avg # of iterations =  2.1
     Minimization algorithm failed to find Fermi energy: reverting to bisection
     Possible cause: smearing is larger than the electronic band-gap.

     total cpu time spent up to now is       29.5 secs

     WARNING: integrated charge=    26.00055052, expected=    26.00000000

     total energy              =    -503.16876850 Ry
     estimated scf accuracy    <       0.08035586 Ry

     iteration #  3     ecut=   100.00 Ry     beta= 0.40
     Davidson diagonalization with overlap

---- Real-time Memory Report at c_bands before calling an iterative solver
           287 MiB given to the printing process from OS
             0 MiB allocation reported by mallinfo(arena+hblkhd)
          5262 MiB available memory on the node where the printing process lives
------------------
     ethr =  3.09E-04,  avg # of iterations =  2.2
     Minimization algorithm failed to find Fermi energy: reverting to bisection
     Possible cause: smearing is larger than the electronic band-gap.

     total cpu time spent up to now is       43.3 secs

     WARNING: integrated charge=    26.00024683, expected=    26.00000000

     total energy              =    -503.18067513 Ry
     estimated scf accuracy    <       0.00503360 Ry

     iteration #  4     ecut=   100.00 Ry     beta= 0.40
     Davidson diagonalization with overlap

---- Real-time Memory Report at c_bands before calling an iterative solver
           287 MiB given to the printing process from OS
             0 MiB allocation reported by mallinfo(arena+hblkhd)
          5258 MiB available memory on the node where the printing process lives
------------------
     ethr =  1.94E-05,  avg # of iterations =  2.5
     Minimization algorithm failed to find Fermi energy: reverting to bisection
     Possible cause: smearing is larger than the electronic band-gap.

     total cpu time spent up to now is       62.6 secs

     WARNING: integrated charge=    26.00004064, expected=    26.00000000

     total energy              =    -503.18071752 Ry
     estimated scf accuracy    <       0.00071518 Ry

     iteration #  5     ecut=   100.00 Ry     beta= 0.40
     Davidson diagonalization with overlap

---- Real-time Memory Report at c_bands before calling an iterative solver
           288 MiB given to the printing process from OS
             0 MiB allocation reported by mallinfo(arena+hblkhd)
          5195 MiB available memory on the node where the printing process lives
------------------
     ethr =  2.75E-06,  avg # of iterations =  2.1
     Minimization algorithm failed to find Fermi energy: reverting to bisection
     Possible cause: smearing is larger than the electronic band-gap.

     total cpu time spent up to now is       69.7 secs

     WARNING: integrated charge=    26.00001633, expected=    26.00000000

     total energy              =    -503.18077947 Ry
     estimated scf accuracy    <       0.00000868 Ry

     iteration #  6     ecut=   100.00 Ry     beta= 0.40
     Davidson diagonalization with overlap

---- Real-time Memory Report at c_bands before calling an iterative solver
           289 MiB given to the printing process from OS
             0 MiB allocation reported by mallinfo(arena+hblkhd)
          5192 MiB available memory on the node where the printing process lives
------------------
     ethr =  3.34E-08,  avg # of iterations =  2.1
     Minimization algorithm failed to find Fermi energy: reverting to bisection
     Possible cause: smearing is larger than the electronic band-gap.

     total cpu time spent up to now is      138.4 secs

     total energy              =    -503.18078232 Ry
     estimated scf accuracy    <       0.00000983 Ry

     iteration #  7     ecut=   100.00 Ry     beta= 0.40
     Davidson diagonalization with overlap

---- Real-time Memory Report at c_bands before calling an iterative solver
           289 MiB given to the printing process from OS
             0 MiB allocation reported by mallinfo(arena+hblkhd)
          5342 MiB available memory on the node where the printing process lives
------------------
     ethr =  3.34E-08,  avg # of iterations =  2.0
     Minimization algorithm failed to find Fermi energy: reverting to bisection
     Possible cause: smearing is larger than the electronic band-gap.

     total cpu time spent up to now is      254.6 secs

     total energy              =    -503.18078294 Ry
     estimated scf accuracy    <       0.00000048 Ry

     iteration #  8     ecut=   100.00 Ry     beta= 0.40
     Davidson diagonalization with overlap

---- Real-time Memory Report at c_bands before calling an iterative solver
           290 MiB given to the printing process from OS
             0 MiB allocation reported by mallinfo(arena+hblkhd)
          5335 MiB available memory on the node where the printing process lives
------------------
     ethr =  1.86E-09,  avg # of iterations =  2.0
     Minimization algorithm failed to find Fermi energy: reverting to bisection
     Possible cause: smearing is larger than the electronic band-gap.

     total cpu time spent up to now is      290.8 secs

     total energy              =    -503.18078306 Ry
     estimated scf accuracy    <       0.00000003 Ry

     iteration #  9     ecut=   100.00 Ry     beta= 0.40
     Davidson diagonalization with overlap

---- Real-time Memory Report at c_bands before calling an iterative solver
           290 MiB given to the printing process from OS
             0 MiB allocation reported by mallinfo(arena+hblkhd)
          5335 MiB available memory on the node where the printing process lives
------------------
     ethr =  1.23E-10,  avg # of iterations =  2.0
     Minimization algorithm failed to find Fermi energy: reverting to bisection
     Possible cause: smearing is larger than the electronic band-gap.

     total cpu time spent up to now is      300.4 secs

     End of self-consistent calculation

          k = 0.0000 0.0000 0.0000 (  2205 PWs)   bands (ev):

  -112.3406 -66.5242 -66.5242 -66.5242  -6.0219   5.9501   5.9501   7.0156
     7.0156   7.0156  11.2125  11.2125  11.2125  11.5390  26.4788  26.4788
    29.7136

     occupation numbers 
     1.0000   1.0000   1.0000   1.0000   1.0000   1.0000   1.0000   1.0000
     1.0000   1.0000   1.0005   1.0005   1.0005   1.0133   0.0000   0.0000
     0.0000

          k = 0.0000 0.0000 0.0833 (  2209 PWs)   bands (ev):

  -112.3405 -66.5253 -66.5241 -66.5241  -5.9533   5.9589   5.9637   6.9699
     6.9699   7.0178  10.1147  11.2944  11.2944  12.5809  25.8105  26.5792
    29.6232

     occupation numbers 
     1.0000   1.0000   1.0000   1.0000   1.0000   1.0000   1.0000   1.0000
     1.0000   1.0000   1.0000   1.0013   1.0013   0.2858   0.0000   0.0000
     0.0000

          k = 0.0000 0.0000 0.1667 (  2208 PWs)   bands (ev):

  -112.3403 -66.5285 -66.5238 -66.5238  -5.7580   5.9476   5.9830   6.8517
     6.8517   7.0240   8.9592  11.5145  11.5145  13.6673  24.4331  26.8820
    29.3527

     occupation numbers 
     1.0000   1.0000   1.0000   1.0000   1.0000   1.0000   1.0000   1.0000
     1.0000   1.0000   1.0000   1.0109   1.0109   0.0000   0.0000   0.0000
     0.0000

          k = 0.0000 0.0000 0.2500 (  2208 PWs)   bands (ev):

  -112.3400 -66.5329 -66.5235 -66.5235  -5.4701   5.7177   6.0160   6.7032
     6.7032   7.0325   8.1550  11.8091  11.8091  14.6801  22.8396  27.3897
    28.9339

     occupation numbers 
     1.0000   1.0000   1.0000   1.0000   1.0000   1.0000   1.0000   1.0000
     1.0000   1.0000   1.0000   1.0645   1.0645   0.0000   0.0000   0.0000
     0.0000

          k = 0.0000 0.0000 0.3333 (  2240 PWs)   bands (ev):

  -112.3398 -66.5372 -66.5232 -66.5232  -5.1518   5.1829   6.0492   6.5666
     6.5666   7.0409   7.8681  12.1007  12.1007  15.6809  21.2233  28.4691
    28.4692

     occupation numbers 
     1.0000   1.0000   1.0000   1.0000   1.0000   1.0000   1.0000   1.0000
     1.0000   1.0000   1.0000   1.0326   1.0326   0.0000   0.0000   0.0000
     0.0000

          k = 0.0000 0.0000 0.4167 (  2232 PWs)   bands (ev):

  -112.3395 -66.5404 -66.5230 -66.5230  -4.8941   4.6546   6.0737   6.4728
     6.4728   7.0471   7.8578  12.3141  12.3141  16.7135  19.7340  28.1063
    28.1063

     occupation numbers 
     1.0000   1.0000   1.0000   1.0000   1.0000   1.0000   1.0000   1.0000
     1.0000   1.0000   1.0000   0.7571   0.7571   0.0000   0.0000   0.0000
     0.0000

          k = 0.0000 0.0000-0.5000 (  2240 PWs)   bands (ev):

  -112.3395 -66.5416 -66.5229 -66.5229  -4.7934   4.4441   6.0826   6.4396
     6.4396   7.0494   7.8786  12.3926  12.3926  17.4470  18.8328  27.9695
    27.9695

     occupation numbers 
     1.0000   1.0000   1.0000   1.0000   1.0000   1.0000   1.0000   1.0000
     1.0000   1.0000   1.0000   0.6127   0.6127   0.0000   0.0000   0.0000
     0.0000

          k = 0.0000 0.0833 0.0833 (  2213 PWs)   bands (ev):

  -112.3405 -66.5253 -66.5252 -66.5240  -5.8858   5.9682   5.9819   6.9193
     6.9505   6.9976   9.8161  10.9964  11.3697  13.2022  25.6897  26.1515
    29.5554

     occupation numbers 
     1.0000   1.0000   1.0000   1.0000   1.0000   1.0000   1.0000   1.0000
     1.0000   1.0000   1.0000   1.0000   1.0029   0.0013   0.0000   0.0000
     0.0000

          k = 0.0000 0.0833 0.1667 (  2220 PWs)   bands (ev):

  -112.3402 -66.5284 -66.5250 -66.5238  -5.6941   5.9655   6.0074   6.7940
     6.8492   6.9964   8.9601  11.0318  11.5724  14.1613  24.4804  26.1779
    29.3447

     occupation numbers 
     1.0000   1.0000   1.0000   1.0000   1.0000   1.0000   1.0000   1.0000
     1.0000   1.0000   1.0000   1.0000   1.0173   0.0000   0.0000   0.0000
     0.0000

          k = 0.0000 0.0833 0.2500 (  2228 PWs)   bands (ev):

  -112.3400 -66.5328 -66.5247 -66.5234  -5.4118   5.7610   6.0375   6.6621
     6.7102   7.0063   8.2061  11.3021  11.8444  15.1005  22.8656  26.4325
    29.0011

     occupation numbers 
     1.0000   1.0000   1.0000   1.0000   1.0000   1.0000   1.0000   1.0000
     1.0000   1.0000   1.0000   1.0014   1.0720   0.0000   0.0000   0.0000
     0.0000

          k = 0.0000 0.0833 0.3333 (  2220 PWs)   bands (ev):

  -112.3397 -66.5371 -66.5244 -66.5231  -5.1005   5.2593   6.0732   6.5543
     6.5806   7.0172   7.8939  11.6104  12.1138  16.0354  21.2203  26.6876
    28.6020

     occupation numbers 
     1.0000   1.0000   1.0000   1.0000   1.0000   1.0000   1.0000   1.0000
     1.0000   1.0000   1.0000   1.0226   1.0227   0.0000   0.0000   0.0000
     0.0000

          k = 0.0000 0.0833 0.4167 (  2221 PWs)   bands (ev):

  -112.3395 -66.5403 -66.5241 -66.5229  -4.8491   4.7578   6.1017   6.4690
     6.4910   7.0253   7.8640  11.8497  12.3109  17.0303  19.6975  26.8337
    28.2812

     occupation numbers 
     1.0000   1.0000   1.0000   1.0000   1.0000   1.0000   1.0000   1.0000
     1.0000   1.0000   1.0000   1.0730   0.7628   0.0000   0.0000   0.0000
     0.0000

          k = 0.0000 0.0833-0.5000 (  2212 PWs)   bands (ev):

  -112.3394 -66.5415 -66.5240 -66.5228  -4.7511   4.5565   6.1129   6.4360
     6.4592   7.0283   7.8797  11.9402  12.3833  17.8792  18.6540  26.8690
    28.1586

     occupation numbers 
     1.0000   1.0000   1.0000   1.0000   1.0000   1.0000   1.0000   1.0000
     1.0000   1.0000   1.0000   1.0833   0.6302   0.0000   0.0000   0.0000
     0.0000

          k = 0.0000 0.1667 0.1667 (  2221 PWs)   bands (ev):

  -112.3400 -66.5282 -66.5281 -66.5235  -5.5128   5.9626   6.0817   6.6617
     6.8182   6.9485   8.7926  10.4202  11.7290  15.0195  24.5721  24.6848
    29.2994

     occupation numbers 
     1.0000   1.0000   1.0000   1.0000   1.0000   1.0000   1.0000   1.0000
     1.0000   1.0000   1.0000   1.0000   1.0458   0.0000   0.0000   0.0000
     0.0000

          k = 0.0000 0.1667 0.2500 (  2225 PWs)   bands (ev):

  -112.3398 -66.5325 -66.5279 -66.5232  -5.2471   5.8308   6.1240   6.5693
     6.7250   6.9411   8.3123  10.3553  11.9399  15.8552  22.8977  24.7965
    29.1768

     occupation numbers 
     1.0000   1.0000   1.0000   1.0000   1.0000   1.0000   1.0000   1.0000
     1.0000   1.0000   1.0000   1.0000   1.0833   0.0000   0.0000   0.0000
     0.0000

          k = 0.0000 0.1667 0.3333 (  2223 PWs)   bands (ev):

  -112.3395 -66.5369 -66.5275 -66.5229  -4.9560   5.4551   6.1532   6.5277
     6.6185   6.9540   7.9640  10.5851  12.1488  16.6425  21.2205  24.9873
    28.9816

     occupation numbers 
     1.0000   1.0000   1.0000   1.0000   1.0000   1.0000   1.0000   1.0000
     1.0000   1.0000   1.0000   1.0000   0.9916   0.0000   0.0000   0.0000
     0.0000

          k = 0.0000 0.1667 0.4167 (  2226 PWs)   bands (ev):

  -112.3393 -66.5401 -66.5273 -66.5227  -4.7229   5.0485   6.1851   6.4654
     6.5412   6.9665   7.8803  10.8258  12.3014  17.4430  19.7658  25.1372
    28.7946

     occupation numbers 
     1.0000   1.0000   1.0000   1.0000   1.0000   1.0000   1.0000   1.0000
     1.0000   1.0000   1.0000   1.0000   0.7793   0.0000   0.0000   0.0000
     0.0000

          k = 0.0000 0.1667-0.5000 (  2212 PWs)   bands (ev):

  -112.3392 -66.5412 -66.5272 -66.5226  -4.6325   4.8790   6.2007   6.4326
     6.5134   6.9714   7.8806  10.9257  12.3573  18.1093  18.8569  25.1950
    28.7175

     occupation numbers 
     1.0000   1.0000   1.0000   1.0000   1.0000   1.0000   1.0000   1.0000
     1.0000   1.0000   1.0000   1.0000   0.6787   0.0000   0.0000   0.0000
     0.0000

          k = 0.0000 0.2500 0.2500 (  2213 PWs)   bands (ev):

  -112.3395 -66.5322 -66.5321 -66.5229  -5.0074   5.8104   6.2606   6.5006
     6.7201   6.8812   8.3021   9.6471  12.0682  16.5173  22.4626  23.6664
    29.3877

     occupation numbers 
     1.0000   1.0000   1.0000   1.0000   1.0000   1.0000   1.0000   1.0000
     1.0000   1.0000   1.0000   1.0000   1.0528   0.0000   0.0000   0.0000
     0.0000

          k = 0.0000 0.2500 0.3333 (  2226 PWs)   bands (ev):

  -112.3392 -66.5365 -66.5318 -66.5226  -4.7475   5.6632   6.3180   6.5080
     6.6672   6.8734   8.0532   9.5398  12.1949  16.9666  21.2401  23.6417
    29.5449

     occupation numbers 
     1.0000   1.0000   1.0000   1.0000   1.0000   1.0000   1.0000   1.0000
     1.0000   1.0000   1.0000   1.0000   0.9398   0.0000   0.0000   0.0000
     0.0000

          k = 0.0000 0.2500 0.4167 (  2214 PWs)   bands (ev):

  -112.3390 -66.5397 -66.5316 -66.5223  -4.5418   5.4568   6.3344   6.4811
     6.6109   6.8877   7.8984   9.6992  12.2869  17.1826  20.3181  23.7974
    29.6108

     occupation numbers 
     1.0000   1.0000   1.0000   1.0000   1.0000   1.0000   1.0000   1.0000
     1.0000   1.0000   1.0000   1.0000   0.8039   0.0000   0.0000   0.0000
     0.0000

          k = 0.0000 0.2500-0.5000 (  2210 PWs)   bands (ev):

  -112.3389 -66.5408 -66.5315 -66.5223  -4.4627   5.3572   6.3444   6.4512
     6.5889   6.8948   7.8729   9.7880  12.3205  17.2309  19.9980  23.8723
    29.6223

     occupation numbers 
     1.0000   1.0000   1.0000   1.0000   1.0000   1.0000   1.0000   1.0000
     1.0000   1.0000   1.0000   1.0000   0.7458   0.0000   0.0000   0.0000
     0.0000

          k = 0.0000 0.3333 0.3333 (  2210 PWs)   bands (ev):

  -112.3389 -66.5362 -66.5361 -66.5223  -4.5241   5.7822   6.5048   6.5324
     6.6983   6.8135   8.0631   8.8364  12.2393  16.8099  21.2340  22.9911
    30.1661

     occupation numbers 
     1.0000   1.0000   1.0000   1.0000   1.0000   1.0000   1.0000   1.0000
     1.0000   1.0000   1.0000   1.0000   0.8793   0.0000   0.0000   0.0000
     0.0000

          k = 0.0000 0.3333 0.4167 (  2219 PWs)   bands (ev):

  -112.3387 -66.5393 -66.5359 -66.5220  -4.3495   5.8341   6.5168   6.6089
     6.6812   6.8114   7.8995   8.7173  12.2707  16.4059  21.1581  22.9482
    29.4657

     occupation numbers 
     1.0000   1.0000   1.0000   1.0000   1.0000   1.0000   1.0000   1.0000
     1.0000   1.0000   1.0000   1.0000   0.8307   0.0000   0.0000   0.0000
     0.0000

          k = 0.0000 0.3333-0.5000 (  2216 PWs)   bands (ev):

  -112.3386 -66.5405 -66.5358 -66.5219  -4.2829   5.8522   6.5235   6.5822
     6.6663   6.8195   7.8371   8.7564  12.2820  16.2012  21.1157  23.0182
    29.2012

     occupation numbers 
     1.0000   1.0000   1.0000   1.0000   1.0000   1.0000   1.0000   1.0000
     1.0000   1.0000   1.0000   1.0000   0.8122   0.0000   0.0000   0.0000
     0.0000

          k = 0.0000 0.4167 0.4167 (  2216 PWs)   bands (ev):

  -112.3385 -66.5391 -66.5390 -66.5218  -4.2006   6.0619   6.6030   6.7261
     6.7638   6.9061   7.8262   8.0986  12.2576  15.6550  21.8468  22.5616
    28.7434

     occupation numbers 
     1.0000   1.0000   1.0000   1.0000   1.0000   1.0000   1.0000   1.0000
     1.0000   1.0000   1.0000   1.0000   0.8514   0.0000   0.0000   0.0000
     0.0000

          k = 0.0000 0.4167-0.5000 (  2208 PWs)   bands (ev):

  -112.3384 -66.5402 -66.5390 -66.5217  -4.1441   6.1422   6.6741   6.7242
     6.7653   6.9781   7.7381   7.9646  12.2526  15.3469  22.0285  22.5575
    28.4106

     occupation numbers 
     1.0000   1.0000   1.0000   1.0000   1.0000   1.0000   1.0000   1.0000
     1.0000   1.0000   1.0000   1.0000   0.8592   0.0000   0.0000   0.0000
     0.0000

          k = 0.0000-0.5000-0.5000 (  2216 PWs)   bands (ev):

  -112.3383 -66.5401 -66.5401 -66.5216  -4.0916   6.2189   6.7456   6.7456
     6.8054   7.2692   7.6080   7.6080  12.2416  15.0090  22.4126  22.4126
    28.0377

     occupation numbers 
     1.0000   1.0000   1.0000   1.0000   1.0000   1.0000   1.0000   1.0000
     1.0000   1.0000   1.0000   1.0000   0.8758   0.0000   0.0000   0.0000
     0.0000

          k = 0.0833 0.0833 0.0833 (  2220 PWs)   bands (ev):

  -112.3404 -66.5252 -66.5251 -66.5251  -5.8195   5.9912   5.9912   6.8797
     6.9492   6.9492   9.6106  11.0831  11.0831  13.6972  25.7377  25.7377
    28.5711

     occupation numbers 
     1.0000   1.0000   1.0000   1.0000   1.0000   1.0000   1.0000   1.0000
     1.0000   1.0000   1.0000   1.0001   1.0001   0.0000   0.0000   0.0000
     0.0000

          k = 0.0833 0.0833 0.1667 (  2215 PWs)   bands (ev):

  -112.3402 -66.5283 -66.5249 -66.5249  -5.6311   6.0022   6.0171   6.7725
     6.8240   6.9586   8.9392  10.9649  11.3158  14.5617  24.5180  25.8664
    28.2369

     occupation numbers 
     1.0000   1.0000   1.0000   1.0000   1.0000   1.0000   1.0000   1.0000
     1.0000   1.0000   1.0000   1.0000   1.0016   0.0000   0.0000   0.0000
     0.0000

          k = 0.0833 0.0833 0.2500 (  2218 PWs)   bands (ev):

  -112.3399 -66.5327 -66.5246 -66.5246  -5.3542   5.8119   6.0538   6.6664
     6.6782   6.9735   8.2436  11.1368  11.6277  15.4331  22.9051  26.0264
    28.2120

     occupation numbers 
     1.0000   1.0000   1.0000   1.0000   1.0000   1.0000   1.0000   1.0000
     1.0000   1.0000   1.0000   1.0002   1.0254   0.0000   0.0000   0.0000
     0.0000

          k = 0.0833 0.0833 0.3333 (  2222 PWs)   bands (ev):

  -112.3396 -66.5370 -66.5243 -66.5243  -5.0494   5.3369   6.0937   6.5189
     6.6170   6.9891   7.9201  11.3872  11.9373  16.3045  21.2486  26.1383
    28.2159

     occupation numbers 
     1.0000   1.0000   1.0000   1.0000   1.0000   1.0000   1.0000   1.0000
     1.0000   1.0000   1.0000   1.0034   1.0833   0.0000   0.0000   0.0000
     0.0000

          k = 0.0833 0.0833 0.4167 (  2225 PWs)   bands (ev):

  -112.3394 -66.5402 -66.5241 -66.5240  -4.8040   4.8582   6.1281   6.4126
     6.5590   7.0007   7.8761  11.5946  12.1650  17.2524  19.7169  26.1581
    28.1940

     occupation numbers 
     1.0000   1.0000   1.0000   1.0000   1.0000   1.0000   1.0000   1.0000
     1.0000   1.0000   1.0000   1.0203   0.9748   0.0000   0.0000   0.0000
     0.0000

          k = 0.0833 0.0833-0.5000 (  2204 PWs)   bands (ev):

  -112.3393 -66.5414 -66.5240 -66.5239  -4.7084   4.6650   6.1435   6.3723
     6.5345   7.0049   7.8880  11.6751  12.2490  18.2446  18.5091  26.1460
    28.1790

     occupation numbers 
     1.0000   1.0000   1.0000   1.0000   1.0000   1.0000   1.0000   1.0000
     1.0000   1.0000   1.0000   1.0342   0.8648   0.0000   0.0000   0.0000
     0.0000

          k = 0.0833 0.1667 0.1667 (  2215 PWs)   bands (ev):

  -112.3400 -66.5281 -66.5281 -66.5247  -5.4527   6.0129   6.0895   6.6689
     6.7896   6.8939   8.7481  10.5224  11.3938  15.3130  24.5423  24.7327
    27.8614

     occupation numbers 
     1.0000   1.0000   1.0000   1.0000   1.0000   1.0000   1.0000   1.0000
     1.0000   1.0000   1.0000   1.0000   1.0036   0.0000   0.0000   0.0000
     0.0000

          k = 0.0833 0.1667 0.2500 (  2216 PWs)   bands (ev):

  -112.3397 -66.5324 -66.5278 -66.5244  -5.1914   5.8986   6.1272   6.5826
     6.6997   6.8946   8.3068  10.4049  11.6438  16.0631  22.9757  24.7140
    28.0232

     occupation numbers 
     1.0000   1.0000   1.0000   1.0000   1.0000   1.0000   1.0000   1.0000
     1.0000   1.0000   1.0000   1.0000   1.0283   0.0000   0.0000   0.0000
     0.0000

          k = 0.0833 0.1667 0.3333 (  2223 PWs)   bands (ev):

  -112.3394 -66.5368 -66.5274 -66.5240  -4.9057   5.5345   6.1604   6.4789
     6.6695   6.9174   7.9844  10.5558  11.9065  16.7745  21.3207  24.7485
    28.2803

     occupation numbers 
     1.0000   1.0000   1.0000   1.0000   1.0000   1.0000   1.0000   1.0000
     1.0000   1.0000   1.0000   1.0000   1.0815   0.0000   0.0000   0.0000
     0.0000

          k = 0.0833 0.1667 0.4167 (  2222 PWs)   bands (ev):

  -112.3392 -66.5400 -66.5272 -66.5238  -4.6773   5.1389   6.2017   6.3697
     6.6436   6.9368   7.9076  10.7389  12.1042  17.5001  19.9003  24.7274
    28.4764

     occupation numbers 
     1.0000   1.0000   1.0000   1.0000   1.0000   1.0000   1.0000   1.0000
     1.0000   1.0000   1.0000   1.0000   1.0300   0.0000   0.0000   0.0000
     0.0000

          k = 0.0833 0.1667-0.5000 (  2218 PWs)   bands (ev):

  -112.3391 -66.5411 -66.5271 -66.5237  -4.5889   4.9739   6.2313   6.3151
     6.6275   6.9441   7.9100  10.8172  12.1780  18.0480  19.0956  24.7073
    28.5514

     occupation numbers 
     1.0000   1.0000   1.0000   1.0000   1.0000   1.0000   1.0000   1.0000
     1.0000   1.0000   1.0000   1.0000   0.9603   0.0000   0.0000   0.0000
     0.0000

          k = 0.0833 0.2500 0.2500 (  2222 PWs)   bands (ev):

  -112.3394 -66.5322 -66.5320 -66.5240  -4.9547   5.8832   6.2505   6.5140
     6.7165   6.8292   8.2522   9.7765  11.7997  16.6250  22.6225  23.5451
    28.3000

     occupation numbers 
     1.0000   1.0000   1.0000   1.0000   1.0000   1.0000   1.0000   1.0000
     1.0000   1.0000   1.0000   1.0000   1.0623   0.0000   0.0000   0.0000
     0.0000

          k = 0.0833 0.2500 0.3333 (  2227 PWs)   bands (ev):

  -112.3391 -66.5364 -66.5318 -66.5237  -4.6984   5.7344   6.2941   6.4629
     6.7260   6.8383   8.0472   9.6248  11.9718  17.0101  21.3753  23.4481
    28.7005

     occupation numbers 
     1.0000   1.0000   1.0000   1.0000   1.0000   1.0000   1.0000   1.0000
     1.0000   1.0000   1.0000   1.0000   1.0820   0.0000   0.0000   0.0000
     0.0000

          k = 0.0833 0.2500 0.4167 (  2216 PWs)   bands (ev):

  -112.3389 -66.5396 -66.5315 -66.5235  -4.4956   5.5241   6.2952   6.3906
     6.7267   6.8650   7.9459   9.7159  12.1040  17.2059  20.4306  23.4670
    29.0697

     occupation numbers 
     1.0000   1.0000   1.0000   1.0000   1.0000   1.0000   1.0000   1.0000
     1.0000   1.0000   1.0000   1.0000   1.0301   0.0000   0.0000   0.0000
     0.0000

          k = 0.0833 0.2500-0.5000 (  2218 PWs)   bands (ev):

  -112.3388 -66.5407 -66.5314 -66.5234  -4.4177   5.4230   6.2876   6.3666
     6.7170   6.8761   7.9380   9.7777  12.1541  17.2559  20.0978  23.4707
    29.2503

     occupation numbers 
     1.0000   1.0000   1.0000   1.0000   1.0000   1.0000   1.0000   1.0000
     1.0000   1.0000   1.0000   1.0000   0.9863   0.0000   0.0000   0.0000
     0.0000

          k = 0.0833 0.3333 0.3333 (  2217 PWs)   bands (ev):

  -112.3388 -66.5361 -66.5360 -66.5234  -4.4762   5.8294   6.4254   6.4611
     6.7689   6.8321   8.0369   9.0053  12.0509  16.8465  21.2874  22.7838
    29.2307

     occupation numbers 
     1.0000   1.0000   1.0000   1.0000   1.0000   1.0000   1.0000   1.0000
     1.0000   1.0000   1.0000   1.0000   1.0613   0.0000   0.0000   0.0000
     0.0000

          k = 0.0833 0.3333 0.4167 (  2217 PWs)   bands (ev):

  -112.3386 -66.5392 -66.5358 -66.5232  -4.3025   5.8640   6.3736   6.4871
     6.7867   6.8778   7.9716   8.8415  12.1137  16.4691  21.1247  22.6640
    29.4997

     occupation numbers 
     1.0000   1.0000   1.0000   1.0000   1.0000   1.0000   1.0000   1.0000
     1.0000   1.0000   1.0000   1.0000   1.0228   0.0000   0.0000   0.0000
     0.0000

          k = 0.0833 0.3333-0.5000 (  2224 PWs)   bands (ev):

  -112.3385 -66.5404 -66.5357 -66.5231  -4.2363   5.8791   6.3107   6.5047
     6.7784   6.8901   7.9616   8.8454  12.1380  16.2762  21.0624  22.6729
    29.4259

     occupation numbers 
     1.0000   1.0000   1.0000   1.0000   1.0000   1.0000   1.0000   1.0000
     1.0000   1.0000   1.0000   1.0000   1.0019   0.0000   0.0000   0.0000
     0.0000

          k = 0.0833 0.4167 0.4167 (  2226 PWs)   bands (ev):

  -112.3384 -66.5390 -66.5389 -66.5229  -4.1528   6.0749   6.4451   6.4845
     6.7951   7.0454   7.9664   8.3288  12.1228  15.7404  21.6680  22.2951
    28.9557

     occupation numbers 
     1.0000   1.0000   1.0000   1.0000   1.0000   1.0000   1.0000   1.0000
     1.0000   1.0000   1.0000   1.0000   1.0154   0.0000   0.0000   0.0000
     0.0000

          k = 0.0833 0.4167-0.5000 (  2216 PWs)   bands (ev):

  -112.3383 -66.5401 -66.5389 -66.5229  -4.0961   6.1790   6.3984   6.5168
     6.7731   7.1157   7.9687   8.1962  12.1267  15.4371  21.8201  22.2543
    28.6855

     occupation numbers 
     1.0000   1.0000   1.0000   1.0000   1.0000   1.0000   1.0000   1.0000
     1.0000   1.0000   1.0000   1.0000   1.0121   0.0000   0.0000   0.0000
     0.0000

          k = 0.0833-0.5000-0.5000 (  2216 PWs)   bands (ev):

  -112.3383 -66.5400 -66.5400 -66.5228  -4.0430   6.2876   6.4824   6.4824
     6.7226   7.2704   7.9637   7.9637  12.1224  15.1003  22.1254  22.1254
    28.3590

     occupation numbers 
     1.0000   1.0000   1.0000   1.0000   1.0000   1.0000   1.0000   1.0000
     1.0000   1.0000   1.0000   1.0000   1.0157   0.0000   0.0000   0.0000
     0.0000

          k = 0.1667 0.1667 0.1667 (  2232 PWs)   bands (ev):

  -112.3398 -66.5279 -66.5278 -66.5278  -5.2825   6.1107   6.1107   6.6608
     6.7563   6.7563   8.5712  10.7955  10.7955  15.8942  24.4383  24.4383
    26.6951

     occupation numbers 
     1.0000   1.0000   1.0000   1.0000   1.0000   1.0000   1.0000   1.0000
     1.0000   1.0000   1.0000   1.0000   1.0000   0.0000   0.0000   0.0000
     0.0000

          k = 0.1667 0.1667 0.2500 (  2222 PWs)   bands (ev):

  -112.3395 -66.5322 -66.5276 -66.5275  -5.0343   6.0513   6.1388   6.5897
     6.6737   6.7882   8.2515  10.4278  11.1615  16.4710  23.1040  24.2336
    26.8381

     occupation numbers 
     1.0000   1.0000   1.0000   1.0000   1.0000   1.0000   1.0000   1.0000
     1.0000   1.0000   1.0000   1.0000   1.0003   0.0000   0.0000   0.0000
     0.0000

          k = 0.1667 0.1667 0.3333 (  2224 PWs)   bands (ev):

  -112.3392 -66.5365 -66.5272 -66.5272  -4.7642   5.7340   6.1646   6.4433
     6.7437   6.8336   8.0130  10.3416  11.5283  17.0000  21.5392  23.9451
    27.5110

     occupation numbers 
     1.0000   1.0000   1.0000   1.0000   1.0000   1.0000   1.0000   1.0000
     1.0000   1.0000   1.0000   1.0000   1.0123   0.0000   0.0000   0.0000
     0.0000

          k = 0.1667 0.1667 0.4167 (  2213 PWs)   bands (ev):

  -112.3390 -66.5397 -66.5270 -66.5269  -4.5495   5.3824   6.1784   6.3499
     6.7550   6.8686   7.9757  10.3747  11.8020  17.5095  20.2501  23.6760
    28.1684

     occupation numbers 
     1.0000   1.0000   1.0000   1.0000   1.0000   1.0000   1.0000   1.0000
     1.0000   1.0000   1.0000   1.0000   1.0629   0.0000   0.0000   0.0000
     0.0000

          k = 0.1667 0.1667-0.5000 (  2216 PWs)   bands (ev):

  -112.3389 -66.5408 -66.5269 -66.5268  -4.4666   5.2341   6.1802   6.3205
     6.7469   6.8817   7.9922  10.4015  11.9040  17.8136  19.6583  23.5649
    28.4528

     occupation numbers 
     1.0000   1.0000   1.0000   1.0000   1.0000   1.0000   1.0000   1.0000
     1.0000   1.0000   1.0000   1.0000   1.0812   0.0000   0.0000   0.0000
     0.0000

          k = 0.1667 0.2500 0.2500 (  2222 PWs)   bands (ev):

  -112.3392 -66.5319 -66.5318 -66.5272  -4.8063   6.0514   6.2102   6.5461
     6.7207   6.7350   8.1062  10.1182  11.1938  16.8326  22.9069  23.1846
    26.7513

     occupation numbers 
     1.0000   1.0000   1.0000   1.0000   1.0000   1.0000   1.0000   1.0000
     1.0000   1.0000   1.0000   1.0000   1.0004   0.0000   0.0000   0.0000
     0.0000

          k = 0.1667 0.2500 0.3333 (  2225 PWs)   bands (ev):

  -112.3389 -66.5362 -66.5315 -66.5269  -4.5600   5.8977   6.1766   6.4794
     6.7748   6.8136   8.0004   9.8571  11.4670  17.0859  21.6282  22.8642
    27.3860

     occupation numbers 
     1.0000   1.0000   1.0000   1.0000   1.0000   1.0000   1.0000   1.0000
     1.0000   1.0000   1.0000   1.0000   1.0073   0.0000   0.0000   0.0000
     0.0000

          k = 0.1667 0.2500 0.4167 (  2216 PWs)   bands (ev):

  -112.3387 -66.5393 -66.5313 -66.5266  -4.3658   5.6806   6.1066   6.4506
     6.8168   6.8296   8.0620   9.7530  11.7056  17.2386  20.6509  22.5721
    28.1874

     occupation numbers 
     1.0000   1.0000   1.0000   1.0000   1.0000   1.0000   1.0000   1.0000
     1.0000   1.0000   1.0000   1.0000   1.0406   0.0000   0.0000   0.0000
     0.0000

          k = 0.1667 0.2500-0.5000 (  2218 PWs)   bands (ev):

  -112.3386 -66.5405 -66.5312 -66.5265  -4.2913   5.5772   6.0778   6.4459
     6.8041   6.8475   8.1216   9.7286  11.7989  17.2917  20.2935  22.4460
    28.5994

     occupation numbers 
     1.0000   1.0000   1.0000   1.0000   1.0000   1.0000   1.0000   1.0000
     1.0000   1.0000   1.0000   1.0000   1.0622   0.0000   0.0000   0.0000
     0.0000

          k = 0.1667 0.3333 0.3333 (  2218 PWs)   bands (ev):

  -112.3386 -66.5359 -66.5358 -66.5265  -4.3413   5.8963   6.1997   6.4824
     6.8395   6.8571   8.0092   9.4382  11.5936  16.9376  21.2986  22.1980
    27.7700

     occupation numbers 
     1.0000   1.0000   1.0000   1.0000   1.0000   1.0000   1.0000   1.0000
     1.0000   1.0000   1.0000   1.0000   1.0201   0.0000   0.0000   0.0000
     0.0000

          k = 0.1667 0.3333 0.4167 (  2226 PWs)   bands (ev):

  -112.3384 -66.5390 -66.5356 -66.5263  -4.1702   5.8693   6.1071   6.4916
     6.7907   6.9436   8.1759   9.2003  11.7356  16.6442  20.9379  21.8789
    28.4412

     occupation numbers 
     1.0000   1.0000   1.0000   1.0000   1.0000   1.0000   1.0000   1.0000
     1.0000   1.0000   1.0000   1.0000   1.0474   0.0000   0.0000   0.0000
     0.0000

          k = 0.1667 0.3333-0.5000 (  2224 PWs)   bands (ev):

  -112.3383 -66.5401 -66.5355 -66.5262  -4.1050   5.8710   6.0296   6.5070
     6.7513   6.9704   8.3035   9.1091  11.7966  16.4889  20.8409  21.7432
    28.9034

     occupation numbers 
     1.0000   1.0000   1.0000   1.0000   1.0000   1.0000   1.0000   1.0000
     1.0000   1.0000   1.0000   1.0000   1.0616   0.0000   0.0000   0.0000
     0.0000

          k = 0.1667 0.4167 0.4167 (  2241 PWs)   bands (ev):

  -112.3382 -66.5387 -66.5387 -66.5261  -4.0183   5.9471   6.1232   6.4762
     6.6734   7.1188   8.3644   8.8790  11.7916  15.9952  21.1070  21.5615
    28.8513

     occupation numbers 
     1.0000   1.0000   1.0000   1.0000   1.0000   1.0000   1.0000   1.0000
     1.0000   1.0000   1.0000   1.0000   1.0605   0.0000   0.0000   0.0000
     0.0000

          k = 0.1667 0.4167-0.5000 (  2226 PWs)   bands (ev):

  -112.3381 -66.5399 -66.5386 -66.5260  -3.9606   6.0367   6.0486   6.4901
     6.5925   7.1829   8.5181   8.7405  11.8181  15.7107  21.2100  21.4261
    29.2398

     occupation numbers 
     1.0000   1.0000   1.0000   1.0000   1.0000   1.0000   1.0000   1.0000
     1.0000   1.0000   1.0000   1.0000   1.0665   0.0000   0.0000   0.0000
     0.0000

          k = 0.1667-0.5000-0.5000 (  2216 PWs)   bands (ev):

  -112.3381 -66.5398 -66.5398 -66.5259  -3.9059   6.0869   6.0869   6.4777
     6.4832   7.2736   8.6296   8.6296  11.8287  15.3821  21.3412  21.3412
    29.4010

     occupation numbers 
     1.0000   1.0000   1.0000   1.0000   1.0000   1.0000   1.0000   1.0000
     1.0000   1.0000   1.0000   1.0000   1.0688   0.0000   0.0000   0.0000
     0.0000

          k = 0.2500 0.2500 0.2500 (  2223 PWs)   bands (ev):

  -112.3389 -66.5316 -66.5315 -66.5315  -4.5915   6.1248   6.1248   6.6367
     6.6367   6.8126   7.9309  10.5740  10.5740  17.0028  22.6254  22.6254
    26.1181

     occupation numbers 
     1.0000   1.0000   1.0000   1.0000   1.0000   1.0000   1.0000   1.0000
     1.0000   1.0000   1.0000   1.0000   1.0000   0.0000   0.0000   0.0000
     0.0000

          k = 0.2500 0.2500 0.3333 (  2220 PWs)   bands (ev):

  -112.3386 -66.5358 -66.5312 -66.5311  -4.3604   5.9954   6.0167   6.6018
     6.7600   6.8499   7.9603  10.0967  11.0367  17.1105  21.6340  21.9928
    26.6586

     occupation numbers 
     1.0000   1.0000   1.0000   1.0000   1.0000   1.0000   1.0000   1.0000
     1.0000   1.0000   1.0000   1.0000   1.0000   0.0000   0.0000   0.0000
     0.0000

          k = 0.2500 0.2500 0.4167 (  2217 PWs)   bands (ev):

  -112.3384 -66.5390 -66.5310 -66.5309  -4.1789   5.8009   5.9324   6.5933
     6.7761   6.8459   8.2393   9.7635  11.3905  17.1752  20.7507  21.4845
    27.5331

     occupation numbers 
     1.0000   1.0000   1.0000   1.0000   1.0000   1.0000   1.0000   1.0000
     1.0000   1.0000   1.0000   1.0000   1.0035   0.0000   0.0000   0.0000
     0.0000

          k = 0.2500 0.2500-0.5000 (  2232 PWs)   bands (ev):

  -112.3383 -66.5401 -66.5309 -66.5308  -4.1095   5.7095   5.9013   6.5925
     6.7407   6.8719   8.4122   9.6179  11.5249  17.1998  20.4132  21.2886
    27.9965

     occupation numbers 
     1.0000   1.0000   1.0000   1.0000   1.0000   1.0000   1.0000   1.0000
     1.0000   1.0000   1.0000   1.0000   1.0119   0.0000   0.0000   0.0000
     0.0000

          k = 0.2500 0.3333 0.3333 (  2227 PWs)   bands (ev):

  -112.3383 -66.5355 -66.5354 -66.5308  -4.1465   5.8654   5.9640   6.6625
     6.7534   6.8775   8.1385  10.0065  11.0676  17.0347  21.0117  21.3555
    26.7093

     occupation numbers 
     1.0000   1.0000   1.0000   1.0000   1.0000   1.0000   1.0000   1.0000
     1.0000   1.0000   1.0000   1.0000   1.0001   0.0000   0.0000   0.0000
     0.0000

          k = 0.2500 0.3333 0.4167 (  2236 PWs)   bands (ev):

  -112.3381 -66.5386 -66.5352 -66.5306  -3.9793   5.7753   5.8554   6.5804
     6.6961   6.9899   8.5335   9.7000  11.3243  16.8758  20.4846  20.8313
    27.1576

     occupation numbers 
     1.0000   1.0000   1.0000   1.0000   1.0000   1.0000   1.0000   1.0000
     1.0000   1.0000   1.0000   1.0000   1.0018   0.0000   0.0000   0.0000
     0.0000

          k = 0.2500 0.3333-0.5000 (  2228 PWs)   bands (ev):

  -112.3381 -66.5398 -66.5351 -66.5305  -3.9155   5.7567   5.7848   6.5216
     6.6978   7.0282   8.8013   9.4902  11.4434  16.7838  20.3950  20.5310
    27.4301

     occupation numbers 
     1.0000   1.0000   1.0000   1.0000   1.0000   1.0000   1.0000   1.0000
     1.0000   1.0000   1.0000   1.0000   1.0059   0.0000   0.0000   0.0000
     0.0000

          k = 0.2500 0.4167 0.4167 (  2234 PWs)   bands (ev):

  -112.3379 -66.5384 -66.5383 -66.5303  -3.8237   5.7264   5.8110   6.3538
     6.7246   7.1498   8.9240   9.5658  11.4116  16.4077  20.2241  20.5413
    27.0008

     occupation numbers 
     1.0000   1.0000   1.0000   1.0000   1.0000   1.0000   1.0000   1.0000
     1.0000   1.0000   1.0000   1.0000   1.0043   0.0000   0.0000   0.0000
     0.0000

          k = 0.2500 0.4167-0.5000 (  2240 PWs)   bands (ev):

  -112.3379 -66.5395 -66.5383 -66.5303  -3.7646   5.7440   5.7562   6.2560
     6.7328   7.2084   9.2016   9.4106  11.4697  16.1706  20.2876  20.3072
    26.9663

     occupation numbers 
     1.0000   1.0000   1.0000   1.0000   1.0000   1.0000   1.0000   1.0000
     1.0000   1.0000   1.0000   1.0000   1.0075   0.0000   0.0000   0.0000
     0.0000

          k = 0.2500-0.5000-0.5000 (  2224 PWs)   bands (ev):

  -112.3378 -66.5394 -66.5394 -66.5302  -3.7072   5.7513   5.7513   6.1250
     6.7424   7.2779   9.3866   9.3866  11.4930  15.8730  20.2607  20.2607
    26.7794

     occupation numbers 
     1.0000   1.0000   1.0000   1.0000   1.0000   1.0000   1.0000   1.0000
     1.0000   1.0000   1.0000   1.0000   1.0091   0.0000   0.0000   0.0000
     0.0000

          k = 0.3333 0.3333 0.3333 (  2230 PWs)   bands (ev):

  -112.3381 -66.5352 -66.5351 -66.5351  -3.9378   5.7722   5.7722   6.4959
     6.8940   6.8940   8.5134  10.5898  10.5898  17.0730  20.4611  20.4611
    26.2019

     occupation numbers 
     1.0000   1.0000   1.0000   1.0000   1.0000   1.0000   1.0000   1.0000
     1.0000   1.0000   1.0000   1.0000   1.0000   0.0000   0.0000   0.0000
     0.0000

          k = 0.3333 0.3333 0.4167 (  2227 PWs)   bands (ev):

  -112.3379 -66.5383 -66.5349 -66.5348  -3.7746   5.6498   5.6735   6.2656
     6.9050   7.0482   9.0232  10.1611  11.0491  17.0235  19.7637  19.9895
    26.0270

     occupation numbers 
     1.0000   1.0000   1.0000   1.0000   1.0000   1.0000   1.0000   1.0000
     1.0000   1.0000   1.0000   1.0000   1.0001   0.0000   0.0000   0.0000
     0.0000

          k = 0.3333 0.3333-0.5000 (  2238 PWs)   bands (ev):

  -112.3378 -66.5394 -66.5348 -66.5347  -3.7124   5.6078   5.6267   6.1808
     6.9089   7.1015   9.3843   9.8596  11.2285  16.9773  19.4963  19.8217
    25.9883

     occupation numbers 
     1.0000   1.0000   1.0000   1.0000   1.0000   1.0000   1.0000   1.0000
     1.0000   1.0000   1.0000   1.0000   1.0006   0.0000   0.0000   0.0000
     0.0000

          k = 0.3333 0.4167 0.4167 (  2237 PWs)   bands (ev):

  -112.3376 -66.5380 -66.5380 -66.5346  -3.6146   5.5455   5.5778   5.9816
     6.9830   7.1662   9.5475  10.2653  11.0863  16.9183  19.2692  19.4792
    25.1838

     occupation numbers 
     1.0000   1.0000   1.0000   1.0000   1.0000   1.0000   1.0000   1.0000
     1.0000   1.0000   1.0000   1.0000   1.0001   0.0000   0.0000   0.0000
     0.0000

          k = 0.3333 0.4167-0.5000 (  2250 PWs)   bands (ev):

  -112.3376 -66.5391 -66.5379 -66.5345  -3.5536   5.5181   5.5364   5.8694
     6.9956   7.2235   9.9128  10.0813  11.1943  16.7874  19.1241  19.3331
    24.8583

     occupation numbers 
     1.0000   1.0000   1.0000   1.0000   1.0000   1.0000   1.0000   1.0000
     1.0000   1.0000   1.0000   1.0000   1.0004   0.0000   0.0000   0.0000
     0.0000

          k = 0.3333-0.5000-0.5000 (  2252 PWs)   bands (ev):

  -112.3375 -66.5390 -66.5390 -66.5344  -3.4930   5.5046   5.5046   5.7318
     7.0122   7.2823  10.1411  10.1411  11.2193  16.5813  19.1400  19.1400
    24.4094

     occupation numbers 
     1.0000   1.0000   1.0000   1.0000   1.0000   1.0000   1.0000   1.0000
     1.0000   1.0000   1.0000   1.0000   1.0005   0.0000   0.0000   0.0000
     0.0000

          k = 0.4167 0.4167 0.4167 (  2251 PWs)   bands (ev):

  -112.3374 -66.5378 -66.5377 -66.5377  -3.4505   5.4346   5.4346   5.6757
     7.1751   7.1751  10.1242  10.8275  10.8275  17.3045  18.6487  18.6487
    23.7791

     occupation numbers 
     1.0000   1.0000   1.0000   1.0000   1.0000   1.0000   1.0000   1.0000
     1.0000   1.0000   1.0000   1.0000   1.0000   0.0000   0.0000   0.0000
     0.0000

          k = 0.4167 0.4167-0.5000 (  2250 PWs)   bands (ev):

  -112.3374 -66.5389 -66.5376 -66.5376  -3.3878   5.3864   5.4005   5.5548
     7.1781   7.2453  10.5051  10.5905  11.0525  17.3542  18.3259  18.5604
    23.2117

     occupation numbers 
     1.0000   1.0000   1.0000   1.0000   1.0000   1.0000   1.0000   1.0000
     1.0000   1.0000   1.0000   1.0000   1.0001   0.0000   0.0000   0.0000
     0.0000

          k = 0.4167-0.5000-0.5000 (  2256 PWs)   bands (ev):

  -112.3373 -66.5388 -66.5388 -66.5375  -3.3244   5.3547   5.3547   5.4223
     7.2127   7.2854  10.7495  10.7495  11.0511  17.4220  18.2594  18.2594
    22.5184

     occupation numbers 
     1.0000   1.0000   1.0000   1.0000   1.0000   1.0000   1.0000   1.0000
     1.0000   1.0000   1.0000   1.0000   1.0001   0.0000   0.0000   0.0000
     0.0000

          k =-0.5000-0.5000-0.5000 (  2272 PWs)   bands (ev):

  -112.3372 -66.5387 -66.5387 -66.5387  -3.2598   5.3044   5.3044   5.3044
     7.2866   7.2866  10.9954  10.9954  10.9954  17.9144  17.9144  17.9144
    21.6669

     occupation numbers 
     1.0000   1.0000   1.0000   1.0000   1.0000   1.0000   1.0000   1.0000
     1.0000   1.0000   1.0000   1.0000   1.0000   0.0000   0.0000   0.0000
     0.0000

     the Fermi energy is    12.5085 ev

!    total energy              =    -503.18078307 Ry
     estimated scf accuracy    <          8.5E-09 Ry
     smearing contrib. (-TS)   =       0.00370971 Ry
     internal energy E=F+TS    =    -503.18449278 Ry

     The total energy is F=E-TS. E is the sum of the following terms:
     one-electron contribution =    -353.12840932 Ry
     hartree contribution      =     190.19703899 Ry
     xc contribution           =     -49.69919207 Ry
     ewald contribution        =    -281.02274351 Ry
     one-center paw contrib.   =      -9.53118687 Ry
      -> PAW hartree energy AE =      25.71829971 Ry
      -> PAW hartree energy PS =     -25.60506962 Ry
      -> PAW xc energy AE      =     -16.61029733 Ry
      -> PAW xc energy PS      =       6.96588038 Ry
      -> total E_H with PAW    =     190.31026908 Ry
      -> total E_XC with PAW   =     -59.34360902 Ry

     convergence has been achieved in   9 iterations

     Forces acting on atoms (cartesian axes, Ry/au):

     atom    1 type  2   force =     0.00000000    0.00000000    0.00000000
     atom    2 type  1   force =     0.00000000    0.00000000    0.00000000
     The non-local contrib.  to forces
     atom    1 type  2   force =     0.00000000    0.00000000    0.00000000
     atom    2 type  1   force =     0.00000000    0.00000000    0.00000000
     The ionic contribution  to forces
     atom    1 type  2   force =    -0.00000000   -0.00000000   -0.00000000
     atom    2 type  1   force =     0.00000000    0.00000000    0.00000000
     The local contribution  to forces
     atom    1 type  2   force =    -0.00000000   -0.00000000   -0.00000000
     atom    2 type  1   force =     0.00000000    0.00000000    0.00000000
     The core correction contribution to forces
     atom    1 type  2   force =     0.00000000    0.00000000    0.00000000
     atom    2 type  1   force =     0.00000000    0.00000000    0.00000000
     The Hubbard contrib.    to forces
     atom    1 type  2   force =     0.00000000    0.00000000    0.00000000
     atom    2 type  1   force =     0.00000000    0.00000000    0.00000000
     The SCF correction term to forces
     atom    1 type  2   force =     0.00000000    0.00000000   -0.00000000
     atom    2 type  1   force =    -0.00000000   -0.00000000    0.00000000

     Total force =     0.000000     Total SCF correction =     0.000000


     Computing stress (Cartesian axis) and pressure

          total   stress  (Ry/bohr**3)                   (kbar)     P=       -2.99
  -0.00002036   0.00000000   0.00000000           -2.99        0.00        0.00
   0.00000000  -0.00002036   0.00000000            0.00       -2.99        0.00
   0.00000000   0.00000000  -0.00002036            0.00        0.00       -2.99

     kinetic stress (kbar)  42458.72      0.00      0.00
                                0.00  42458.72      0.00
                                0.00      0.00  42458.72

     local   stress (kbar)  10032.74     -0.00      0.00
                               -0.00  10032.74     -0.00
                                0.00     -0.00  10032.74

     nonloc. stress (kbar)   -937.18      0.00      0.00
                                0.00   -937.18      0.00
                                0.00      0.00   -937.18

     hartree stress (kbar)  70852.98      0.00     -0.00
                                0.00  70852.98      0.00
                               -0.00      0.00  70852.98

     exc-cor stress (kbar) -17247.98     -0.00      0.00
                               -0.00 -17247.98     -0.00
                                0.00     -0.00 -17247.98

     corecor stress (kbar)   -474.54      0.00      0.00
                                0.00   -474.54     -0.00
                                0.00     -0.00   -474.54

     ewald   stress (kbar)-104687.74      0.00     -0.00
                                0.00-104687.74      0.00
                               -0.00      0.00-104687.74

     hubbard stress (kbar)      0.00      0.00      0.00
                                0.00      0.00      0.00
                                0.00      0.00      0.00

     DFT-D   stress (kbar)      0.00      0.00      0.00
                                0.00      0.00      0.00
                                0.00      0.00      0.00

     XDM     stress (kbar)      0.00      0.00      0.00
                                0.00      0.00      0.00
                                0.00      0.00      0.00

     dft-nl  stress (kbar)      0.00      0.00      0.00
                                0.00      0.00      0.00
                                0.00      0.00      0.00

     TS-vdW  stress (kbar)      0.00      0.00      0.00
                                0.00      0.00      0.00
                                0.00      0.00      0.00

     MDB     stress (kbar)      0.00      0.00      0.00
                                0.00      0.00      0.00
                                0.00      0.00      0.00

     3D-RISM stress (kbar)      0.00      0.00      0.00
                                0.00      0.00      0.00
                                0.00      0.00      0.00


     Writing all to output data dir ./temp_cubic/aiida.save/ :
     XML data file, charge density, pseudopotentials, collected wavefunctions

     init_run     :    112.50s CPU      5.09s WALL (       1 calls)
     electrons    :   6857.44s CPU    294.75s WALL (       1 calls)
     forces       :     15.64s CPU      0.75s WALL (       1 calls)
     stress       :     25.99s CPU      1.79s WALL (       1 calls)

     Called by init_run:
     wfcinit      :    107.73s CPU      4.51s WALL (       1 calls)
     wfcinit:atom :      1.25s CPU      0.08s WALL (      84 calls)
     wfcinit:wfcr :    101.42s CPU      4.24s WALL (      84 calls)
     potinit      :      1.43s CPU      0.09s WALL (       1 calls)
     hinit0       :      1.41s CPU      0.33s WALL (       1 calls)

     Called by electrons:
     c_bands      :   5342.96s CPU    228.76s WALL (       9 calls)
     sum_band     :   1479.36s CPU     63.78s WALL (       9 calls)
     v_of_rho     :      8.48s CPU      0.36s WALL (      10 calls)
     v_h          :      2.37s CPU      0.10s WALL (      10 calls)
     v_xc         :      6.85s CPU      0.29s WALL (      12 calls)
     newd         :     11.74s CPU      1.22s WALL (      10 calls)
     PAW_pot      :     13.25s CPU      0.57s WALL (      10 calls)
     mix_rho      :      2.80s CPU      0.13s WALL (       9 calls)

     Called by c_bands:
     init_us_2    :     69.82s CPU      3.19s WALL (    1764 calls)
     cegterg      :   5240.34s CPU    224.12s WALL (     756 calls)

     Called by sum_band:
     sum_band:wei :      0.77s CPU      0.02s WALL (       9 calls)
     sum_band:loo :   1472.62s CPU     62.46s WALL (       9 calls)
     sum_band:buf :      1.02s CPU      0.05s WALL (     756 calls)
     sum_band:ini :     42.33s CPU      1.79s WALL (     756 calls)
     sum_band:cal :     27.73s CPU      1.17s WALL (     756 calls)
     sum_band:bec :     68.95s CPU      2.88s WALL (     756 calls)
     addusdens    :      4.45s CPU      1.14s WALL (       9 calls)
                                        0.00s GPU  (       9 calls)
     addusd:skk   :      0.00s CPU      0.00s WALL (      18 calls)
                                        0.00s GPU  (      18 calls)

     Called by *egterg:
     cdiaghg      :     14.23s CPU      0.65s WALL (    2430 calls)
     cegterg:over :    104.85s CPU      3.89s WALL (    1674 calls)
     cegterg:upda :     89.77s CPU      4.51s WALL (    1674 calls)
     cegterg:last :    129.15s CPU      5.42s WALL (    1511 calls)
     h_psi        :   4646.82s CPU    198.88s WALL (    2514 calls)
     s_psi        :     73.06s CPU      3.11s WALL (    2514 calls)
     g_psi        :     71.87s CPU      3.28s WALL (    1674 calls)

     Called by h_psi:
     h_psi:calbec :     63.74s CPU      2.97s WALL (    2514 calls)
     vloc_psi     :   4397.35s CPU    188.02s WALL (    2514 calls)
     add_vuspsi   :     74.43s CPU      3.11s WALL (    2514 calls)

     General routines
     calbec       :    105.71s CPU      4.71s WALL (    3690 calls)
     fft          :      3.72s CPU      0.16s WALL (     153 calls)
     ffts         :      0.25s CPU      0.01s WALL (      19 calls)
     fftw         :    512.62s CPU     23.19s WALL (   76840 calls)
     interpolate  :      0.30s CPU      0.02s WALL (      10 calls)

     Parallel routines

     PAW routines
     PAW_pot      :     13.25s CPU      0.57s WALL (      10 calls)
     PAW_symme    :      0.00s CPU      0.00s WALL (      19 calls)

     PWSCF        :      1h57m CPU   5m 3.76s WALL


   This run was terminated on:  13:32:40  12Jun2024            

=------------------------------------------------------------------------------=
   JOB DONE.
=------------------------------------------------------------------------------=
