
     Program PWSCF v.7.3.1 starts on  7Jun2024 at 21:39:27 

     This program is part of the open-source Quantum ESPRESSO suite
     for quantum simulation of materials; please cite
         "P. Giannozzi et al., J. Phys.:Condens. Matter 21 395502 (2009);
         "P. Giannozzi et al., J. Phys.:Condens. Matter 29 465901 (2017);
         "P. Giannozzi et al., J. Chem. Phys. 152 154105 (2020);
          URL http://www.quantum-espresso.org", 
     in publications or presentations arising from this work. More details at
     http://www.quantum-espresso.org/quote

     Parallel version (MPI & OpenMP), running on      24 processor cores
     Number of MPI processes:                 1
     Threads/MPI process:                    24

     MPI processes distributed on     1 nodes
     4546 MiB available memory on the printing compute node when the environment starts

     Waiting for input...
     Reading input from standard input

     Current dimensions of program PWSCF are:
     Max number of different atomic species (ntypx) = 10
     Max number of k-points (npk) =  40000
     Max angular momentum in pseudopotentials (lmaxx) =  4
     file O.pbe-n-kjpaw_psl.0.1.UPF: wavefunction(s)  2P renormalized
     Message from routine setup:
     using ibrav=0 with symmetry is DISCOURAGED, use correct ibrav instead

     Subspace diagonalization in iterative solution of the eigenvalue problem:
     a serial algorithm will be used


     G-vector sticks info
     --------------------
     sticks:   dense  smooth     PW     G-vecs:    dense   smooth      PW
     Sum         901     441    145                20479     7153    1357

     Using Slab Decomposition



     bravais-lattice index     =            0
     lattice parameter (alat)  =       5.3412  a.u.
     unit-cell volume          =     152.3772 (a.u.)^3
     number of atoms/cell      =            2
     number of atomic types    =            2
     number of electrons       =        26.00
     number of Kohn-Sham states=           17
     kinetic-energy cutoff     =      50.0000  Ry
     charge density cutoff     =     400.0000  Ry
     scf convergence threshold =      1.0E-08
     mixing beta               =       0.4000
     number of iterations used =            8  plain     mixing
     Exchange-correlation= SLA  PW   PBE  PBE
                           (   1   4   3   4   0   0   0)

     celldm(1)=   5.341214  celldm(2)=   0.000000  celldm(3)=   0.000000
     celldm(4)=   0.000000  celldm(5)=   0.000000  celldm(6)=   0.000000

     crystal axes: (cart. coord. in units of alat)
               a(1) = (   1.000000   0.000000   0.000000 )  
               a(2) = (   0.000000   1.000000   0.000000 )  
               a(3) = (   0.000000   0.000000   1.000000 )  

     reciprocal axes: (cart. coord. in units 2 pi/alat)
               b(1) = (  1.000000  0.000000  0.000000 )  
               b(2) = (  0.000000  1.000000  0.000000 )  
               b(3) = (  0.000000  0.000000  1.000000 )  


     PseudoPot. # 1 for O  read from file:
     ../SSSP_1.3.0_PBE_efficiency/O.pbe-n-kjpaw_psl.0.1.UPF
     MD5 check sum: 0234752ac141de4415c5fc33072bef88
     Pseudo is Projector augmented-wave + core cor, Zval =  6.0
     Generated using "atomic" code by A. Dal Corso  v.5.0.99 svn rev. 10869
     Shape of augmentation charge: BESSEL
     Using radial grid of 1095 points,  4 beta functions with: 
                l(1) =   0
                l(2) =   0
                l(3) =   1
                l(4) =   1
     Q(r) pseudized with 0 coefficients 


     PseudoPot. # 2 for Zn read from file:
     ../SSSP_1.3.0_PBE_efficiency/Zn_pbe_v1.uspp.F.UPF
     MD5 check sum: df62231357ef9e81f77b2b3087fa5675
     Pseudo is Ultrasoft, Zval = 20.0
     Generated by new atomic code, or converted to UPF format
     Using radial grid of  943 points,  6 beta functions with: 
                l(1) =   0
                l(2) =   0
                l(3) =   1
                l(4) =   1
                l(5) =   2
                l(6) =   2
     Q(r) pseudized with  8 coefficients,  rinner =    1.100   1.100   1.100
                                                       1.100   1.100

     atomic species   valence    mass     pseudopotential
     O                 6.00    15.99940     O ( 1.00)
     Zn               20.00    65.38000     Zn( 1.00)

     48 Sym. Ops., with inversion, found


                                    s                        frac. trans.

      isym =  1     identity                                     

 cryst.   s( 1) = (     1          0          0      )
                  (     0          1          0      )
                  (     0          0          1      )

 cart.    s( 1) = (  1.0000000  0.0000000  0.0000000 )
                  (  0.0000000  1.0000000  0.0000000 )
                  (  0.0000000  0.0000000  1.0000000 )


      isym =  2     180 deg rotation - cart. axis [0,0,1]        

 cryst.   s( 2) = (    -1          0          0      )
                  (     0         -1          0      )
                  (     0          0          1      )

 cart.    s( 2) = ( -1.0000000  0.0000000  0.0000000 )
                  (  0.0000000 -1.0000000  0.0000000 )
                  (  0.0000000  0.0000000  1.0000000 )


      isym =  3     180 deg rotation - cart. axis [0,1,0]        

 cryst.   s( 3) = (    -1          0          0      )
                  (     0          1          0      )
                  (     0          0         -1      )

 cart.    s( 3) = ( -1.0000000  0.0000000  0.0000000 )
                  (  0.0000000  1.0000000  0.0000000 )
                  (  0.0000000  0.0000000 -1.0000000 )


      isym =  4     180 deg rotation - cart. axis [1,0,0]        

 cryst.   s( 4) = (     1          0          0      )
                  (     0         -1          0      )
                  (     0          0         -1      )

 cart.    s( 4) = (  1.0000000  0.0000000  0.0000000 )
                  (  0.0000000 -1.0000000  0.0000000 )
                  (  0.0000000  0.0000000 -1.0000000 )


      isym =  5     180 deg rotation - cart. axis [1,1,0]        

 cryst.   s( 5) = (     0          1          0      )
                  (     1          0          0      )
                  (     0          0         -1      )

 cart.    s( 5) = (  0.0000000  1.0000000  0.0000000 )
                  (  1.0000000  0.0000000  0.0000000 )
                  (  0.0000000  0.0000000 -1.0000000 )


      isym =  6     180 deg rotation - cart. axis [1,-1,0]       

 cryst.   s( 6) = (     0         -1          0      )
                  (    -1          0          0      )
                  (     0          0         -1      )

 cart.    s( 6) = (  0.0000000 -1.0000000  0.0000000 )
                  ( -1.0000000  0.0000000  0.0000000 )
                  (  0.0000000  0.0000000 -1.0000000 )


      isym =  7      90 deg rotation - cart. axis [0,0,-1]       

 cryst.   s( 7) = (     0         -1          0      )
                  (     1          0          0      )
                  (     0          0          1      )

 cart.    s( 7) = (  0.0000000  1.0000000  0.0000000 )
                  ( -1.0000000  0.0000000  0.0000000 )
                  (  0.0000000  0.0000000  1.0000000 )


      isym =  8      90 deg rotation - cart. axis [0,0,1]        

 cryst.   s( 8) = (     0          1          0      )
                  (    -1          0          0      )
                  (     0          0          1      )

 cart.    s( 8) = (  0.0000000 -1.0000000  0.0000000 )
                  (  1.0000000  0.0000000  0.0000000 )
                  (  0.0000000  0.0000000  1.0000000 )


      isym =  9     180 deg rotation - cart. axis [1,0,1]        

 cryst.   s( 9) = (     0          0          1      )
                  (     0         -1          0      )
                  (     1          0          0      )

 cart.    s( 9) = (  0.0000000  0.0000000  1.0000000 )
                  (  0.0000000 -1.0000000  0.0000000 )
                  (  1.0000000  0.0000000  0.0000000 )


      isym = 10     180 deg rotation - cart. axis [-1,0,1]       

 cryst.   s(10) = (     0          0         -1      )
                  (     0         -1          0      )
                  (    -1          0          0      )

 cart.    s(10) = (  0.0000000  0.0000000 -1.0000000 )
                  (  0.0000000 -1.0000000  0.0000000 )
                  ( -1.0000000  0.0000000  0.0000000 )


      isym = 11      90 deg rotation - cart. axis [0,1,0]        

 cryst.   s(11) = (     0          0         -1      )
                  (     0          1          0      )
                  (     1          0          0      )

 cart.    s(11) = (  0.0000000  0.0000000  1.0000000 )
                  (  0.0000000  1.0000000  0.0000000 )
                  ( -1.0000000  0.0000000  0.0000000 )


      isym = 12      90 deg rotation - cart. axis [0,-1,0]       

 cryst.   s(12) = (     0          0          1      )
                  (     0          1          0      )
                  (    -1          0          0      )

 cart.    s(12) = (  0.0000000  0.0000000 -1.0000000 )
                  (  0.0000000  1.0000000  0.0000000 )
                  (  1.0000000  0.0000000  0.0000000 )


      isym = 13     180 deg rotation - cart. axis [0,1,1]        

 cryst.   s(13) = (    -1          0          0      )
                  (     0          0          1      )
                  (     0          1          0      )

 cart.    s(13) = ( -1.0000000  0.0000000  0.0000000 )
                  (  0.0000000  0.0000000  1.0000000 )
                  (  0.0000000  1.0000000  0.0000000 )


      isym = 14     180 deg rotation - cart. axis [0,1,-1]       

 cryst.   s(14) = (    -1          0          0      )
                  (     0          0         -1      )
                  (     0         -1          0      )

 cart.    s(14) = ( -1.0000000  0.0000000  0.0000000 )
                  (  0.0000000  0.0000000 -1.0000000 )
                  (  0.0000000 -1.0000000  0.0000000 )


      isym = 15      90 deg rotation - cart. axis [-1,0,0]       

 cryst.   s(15) = (     1          0          0      )
                  (     0          0         -1      )
                  (     0          1          0      )

 cart.    s(15) = (  1.0000000  0.0000000  0.0000000 )
                  (  0.0000000  0.0000000  1.0000000 )
                  (  0.0000000 -1.0000000  0.0000000 )


      isym = 16      90 deg rotation - cart. axis [1,0,0]        

 cryst.   s(16) = (     1          0          0      )
                  (     0          0          1      )
                  (     0         -1          0      )

 cart.    s(16) = (  1.0000000  0.0000000  0.0000000 )
                  (  0.0000000  0.0000000 -1.0000000 )
                  (  0.0000000  1.0000000  0.0000000 )


      isym = 17     120 deg rotation - cart. axis [-1,-1,-1]     

 cryst.   s(17) = (     0          0          1      )
                  (     1          0          0      )
                  (     0          1          0      )

 cart.    s(17) = (  0.0000000  1.0000000  0.0000000 )
                  (  0.0000000  0.0000000  1.0000000 )
                  (  1.0000000  0.0000000  0.0000000 )


      isym = 18     120 deg rotation - cart. axis [-1,1,1]       

 cryst.   s(18) = (     0          0         -1      )
                  (    -1          0          0      )
                  (     0          1          0      )

 cart.    s(18) = (  0.0000000 -1.0000000  0.0000000 )
                  (  0.0000000  0.0000000  1.0000000 )
                  ( -1.0000000  0.0000000  0.0000000 )


      isym = 19     120 deg rotation - cart. axis [1,1,-1]       

 cryst.   s(19) = (     0          0         -1      )
                  (     1          0          0      )
                  (     0         -1          0      )

 cart.    s(19) = (  0.0000000  1.0000000  0.0000000 )
                  (  0.0000000  0.0000000 -1.0000000 )
                  ( -1.0000000  0.0000000  0.0000000 )


      isym = 20     120 deg rotation - cart. axis [1,-1,1]       

 cryst.   s(20) = (     0          0          1      )
                  (    -1          0          0      )
                  (     0         -1          0      )

 cart.    s(20) = (  0.0000000 -1.0000000  0.0000000 )
                  (  0.0000000  0.0000000 -1.0000000 )
                  (  1.0000000  0.0000000  0.0000000 )


      isym = 21     120 deg rotation - cart. axis [1,1,1]        

 cryst.   s(21) = (     0          1          0      )
                  (     0          0          1      )
                  (     1          0          0      )

 cart.    s(21) = (  0.0000000  0.0000000  1.0000000 )
                  (  1.0000000  0.0000000  0.0000000 )
                  (  0.0000000  1.0000000  0.0000000 )


      isym = 22     120 deg rotation - cart. axis [-1,1,-1]      

 cryst.   s(22) = (     0         -1          0      )
                  (     0          0         -1      )
                  (     1          0          0      )

 cart.    s(22) = (  0.0000000  0.0000000  1.0000000 )
                  ( -1.0000000  0.0000000  0.0000000 )
                  (  0.0000000 -1.0000000  0.0000000 )


      isym = 23     120 deg rotation - cart. axis [1,-1,-1]      

 cryst.   s(23) = (     0         -1          0      )
                  (     0          0          1      )
                  (    -1          0          0      )

 cart.    s(23) = (  0.0000000  0.0000000 -1.0000000 )
                  ( -1.0000000  0.0000000  0.0000000 )
                  (  0.0000000  1.0000000  0.0000000 )


      isym = 24     120 deg rotation - cart. axis [-1,-1,1]      

 cryst.   s(24) = (     0          1          0      )
                  (     0          0         -1      )
                  (    -1          0          0      )

 cart.    s(24) = (  0.0000000  0.0000000 -1.0000000 )
                  (  1.0000000  0.0000000  0.0000000 )
                  (  0.0000000 -1.0000000  0.0000000 )


      isym = 25     inversion                                    

 cryst.   s(25) = (    -1          0          0      )
                  (     0         -1          0      )
                  (     0          0         -1      )

 cart.    s(25) = ( -1.0000000  0.0000000  0.0000000 )
                  (  0.0000000 -1.0000000  0.0000000 )
                  (  0.0000000  0.0000000 -1.0000000 )


      isym = 26     inv. 180 deg rotation - cart. axis [0,0,1]   

 cryst.   s(26) = (     1          0          0      )
                  (     0          1          0      )
                  (     0          0         -1      )

 cart.    s(26) = (  1.0000000  0.0000000  0.0000000 )
                  (  0.0000000  1.0000000  0.0000000 )
                  (  0.0000000  0.0000000 -1.0000000 )


      isym = 27     inv. 180 deg rotation - cart. axis [0,1,0]   

 cryst.   s(27) = (     1          0          0      )
                  (     0         -1          0      )
                  (     0          0          1      )

 cart.    s(27) = (  1.0000000  0.0000000  0.0000000 )
                  (  0.0000000 -1.0000000  0.0000000 )
                  (  0.0000000  0.0000000  1.0000000 )


      isym = 28     inv. 180 deg rotation - cart. axis [1,0,0]   

 cryst.   s(28) = (    -1          0          0      )
                  (     0          1          0      )
                  (     0          0          1      )

 cart.    s(28) = ( -1.0000000  0.0000000  0.0000000 )
                  (  0.0000000  1.0000000  0.0000000 )
                  (  0.0000000  0.0000000  1.0000000 )


      isym = 29     inv. 180 deg rotation - cart. axis [1,1,0]   

 cryst.   s(29) = (     0         -1          0      )
                  (    -1          0          0      )
                  (     0          0          1      )

 cart.    s(29) = (  0.0000000 -1.0000000  0.0000000 )
                  ( -1.0000000  0.0000000  0.0000000 )
                  (  0.0000000  0.0000000  1.0000000 )


      isym = 30     inv. 180 deg rotation - cart. axis [1,-1,0]  

 cryst.   s(30) = (     0          1          0      )
                  (     1          0          0      )
                  (     0          0          1      )

 cart.    s(30) = (  0.0000000  1.0000000  0.0000000 )
                  (  1.0000000  0.0000000  0.0000000 )
                  (  0.0000000  0.0000000  1.0000000 )


      isym = 31     inv.  90 deg rotation - cart. axis [0,0,-1]  

 cryst.   s(31) = (     0          1          0      )
                  (    -1          0          0      )
                  (     0          0         -1      )

 cart.    s(31) = (  0.0000000 -1.0000000  0.0000000 )
                  (  1.0000000  0.0000000  0.0000000 )
                  (  0.0000000  0.0000000 -1.0000000 )


      isym = 32     inv.  90 deg rotation - cart. axis [0,0,1]   

 cryst.   s(32) = (     0         -1          0      )
                  (     1          0          0      )
                  (     0          0         -1      )

 cart.    s(32) = (  0.0000000  1.0000000  0.0000000 )
                  ( -1.0000000  0.0000000  0.0000000 )
                  (  0.0000000  0.0000000 -1.0000000 )


      isym = 33     inv. 180 deg rotation - cart. axis [1,0,1]   

 cryst.   s(33) = (     0          0         -1      )
                  (     0          1          0      )
                  (    -1          0          0      )

 cart.    s(33) = (  0.0000000  0.0000000 -1.0000000 )
                  (  0.0000000  1.0000000  0.0000000 )
                  ( -1.0000000  0.0000000  0.0000000 )


      isym = 34     inv. 180 deg rotation - cart. axis [-1,0,1]  

 cryst.   s(34) = (     0          0          1      )
                  (     0          1          0      )
                  (     1          0          0      )

 cart.    s(34) = (  0.0000000  0.0000000  1.0000000 )
                  (  0.0000000  1.0000000  0.0000000 )
                  (  1.0000000  0.0000000  0.0000000 )


      isym = 35     inv.  90 deg rotation - cart. axis [0,1,0]   

 cryst.   s(35) = (     0          0          1      )
                  (     0         -1          0      )
                  (    -1          0          0      )

 cart.    s(35) = (  0.0000000  0.0000000 -1.0000000 )
                  (  0.0000000 -1.0000000  0.0000000 )
                  (  1.0000000  0.0000000  0.0000000 )


      isym = 36     inv.  90 deg rotation - cart. axis [0,-1,0]  

 cryst.   s(36) = (     0          0         -1      )
                  (     0         -1          0      )
                  (     1          0          0      )

 cart.    s(36) = (  0.0000000  0.0000000  1.0000000 )
                  (  0.0000000 -1.0000000  0.0000000 )
                  ( -1.0000000  0.0000000  0.0000000 )


      isym = 37     inv. 180 deg rotation - cart. axis [0,1,1]   

 cryst.   s(37) = (     1          0          0      )
                  (     0          0         -1      )
                  (     0         -1          0      )

 cart.    s(37) = (  1.0000000  0.0000000  0.0000000 )
                  (  0.0000000  0.0000000 -1.0000000 )
                  (  0.0000000 -1.0000000  0.0000000 )


      isym = 38     inv. 180 deg rotation - cart. axis [0,1,-1]  

 cryst.   s(38) = (     1          0          0      )
                  (     0          0          1      )
                  (     0          1          0      )

 cart.    s(38) = (  1.0000000  0.0000000  0.0000000 )
                  (  0.0000000  0.0000000  1.0000000 )
                  (  0.0000000  1.0000000  0.0000000 )


      isym = 39     inv.  90 deg rotation - cart. axis [-1,0,0]  

 cryst.   s(39) = (    -1          0          0      )
                  (     0          0          1      )
                  (     0         -1          0      )

 cart.    s(39) = ( -1.0000000  0.0000000  0.0000000 )
                  (  0.0000000  0.0000000 -1.0000000 )
                  (  0.0000000  1.0000000  0.0000000 )


      isym = 40     inv.  90 deg rotation - cart. axis [1,0,0]   

 cryst.   s(40) = (    -1          0          0      )
                  (     0          0         -1      )
                  (     0          1          0      )

 cart.    s(40) = ( -1.0000000  0.0000000  0.0000000 )
                  (  0.0000000  0.0000000  1.0000000 )
                  (  0.0000000 -1.0000000  0.0000000 )


      isym = 41     inv. 120 deg rotation - cart. axis [-1,-1,-1]

 cryst.   s(41) = (     0          0         -1      )
                  (    -1          0          0      )
                  (     0         -1          0      )

 cart.    s(41) = (  0.0000000 -1.0000000  0.0000000 )
                  (  0.0000000  0.0000000 -1.0000000 )
                  ( -1.0000000  0.0000000  0.0000000 )


      isym = 42     inv. 120 deg rotation - cart. axis [-1,1,1]  

 cryst.   s(42) = (     0          0          1      )
                  (     1          0          0      )
                  (     0         -1          0      )

 cart.    s(42) = (  0.0000000  1.0000000  0.0000000 )
                  (  0.0000000  0.0000000 -1.0000000 )
                  (  1.0000000  0.0000000  0.0000000 )


      isym = 43     inv. 120 deg rotation - cart. axis [1,1,-1]  

 cryst.   s(43) = (     0          0          1      )
                  (    -1          0          0      )
                  (     0          1          0      )

 cart.    s(43) = (  0.0000000 -1.0000000  0.0000000 )
                  (  0.0000000  0.0000000  1.0000000 )
                  (  1.0000000  0.0000000  0.0000000 )


      isym = 44     inv. 120 deg rotation - cart. axis [1,-1,1]  

 cryst.   s(44) = (     0          0         -1      )
                  (     1          0          0      )
                  (     0          1          0      )

 cart.    s(44) = (  0.0000000  1.0000000  0.0000000 )
                  (  0.0000000  0.0000000  1.0000000 )
                  ( -1.0000000  0.0000000  0.0000000 )


      isym = 45     inv. 120 deg rotation - cart. axis [1,1,1]   

 cryst.   s(45) = (     0         -1          0      )
                  (     0          0         -1      )
                  (    -1          0          0      )

 cart.    s(45) = (  0.0000000  0.0000000 -1.0000000 )
                  ( -1.0000000  0.0000000  0.0000000 )
                  (  0.0000000 -1.0000000  0.0000000 )


      isym = 46     inv. 120 deg rotation - cart. axis [-1,1,-1] 

 cryst.   s(46) = (     0          1          0      )
                  (     0          0          1      )
                  (    -1          0          0      )

 cart.    s(46) = (  0.0000000  0.0000000 -1.0000000 )
                  (  1.0000000  0.0000000  0.0000000 )
                  (  0.0000000  1.0000000  0.0000000 )


      isym = 47     inv. 120 deg rotation - cart. axis [1,-1,-1] 

 cryst.   s(47) = (     0          1          0      )
                  (     0          0         -1      )
                  (     1          0          0      )

 cart.    s(47) = (  0.0000000  0.0000000  1.0000000 )
                  (  1.0000000  0.0000000  0.0000000 )
                  (  0.0000000 -1.0000000  0.0000000 )


      isym = 48     inv. 120 deg rotation - cart. axis [-1,-1,1] 

 cryst.   s(48) = (     0         -1          0      )
                  (     0          0          1      )
                  (     1          0          0      )

 cart.    s(48) = (  0.0000000  0.0000000  1.0000000 )
                  ( -1.0000000  0.0000000  0.0000000 )
                  (  0.0000000  1.0000000  0.0000000 )


   Cartesian axes

     site n.     atom                  positions (alat units)
         1        Zn     tau(   1) = (   0.0000000   0.0000000   0.0000000  )
         2        O      tau(   2) = (   0.5000000   0.5000000   0.5000000  )

   Crystallographic axes

     site n.     atom                  positions (cryst. coord.)
         1        Zn     tau(   1) = (  0.0000000  0.0000000  0.0000000  )
         2        O      tau(   2) = (  0.5000000  0.5000000  0.5000000  )

     number of k points=    84  Marzari-Vanderbilt smearing, width (Ry)=  0.0147
                       cart. coord. in units 2pi/alat
        k(    1) = (   0.0000000   0.0000000   0.0000000), wk =   0.0011574
        k(    2) = (   0.0000000   0.0000000   0.0833333), wk =   0.0069444
        k(    3) = (   0.0000000   0.0000000   0.1666667), wk =   0.0069444
        k(    4) = (   0.0000000   0.0000000   0.2500000), wk =   0.0069444
        k(    5) = (   0.0000000   0.0000000   0.3333333), wk =   0.0069444
        k(    6) = (   0.0000000   0.0000000   0.4166667), wk =   0.0069444
        k(    7) = (   0.0000000   0.0000000  -0.5000000), wk =   0.0034722
        k(    8) = (   0.0000000   0.0833333   0.0833333), wk =   0.0138889
        k(    9) = (   0.0000000   0.0833333   0.1666667), wk =   0.0277778
        k(   10) = (   0.0000000   0.0833333   0.2500000), wk =   0.0277778
        k(   11) = (   0.0000000   0.0833333   0.3333333), wk =   0.0277778
        k(   12) = (   0.0000000   0.0833333   0.4166667), wk =   0.0277778
        k(   13) = (   0.0000000   0.0833333  -0.5000000), wk =   0.0138889
        k(   14) = (   0.0000000   0.1666667   0.1666667), wk =   0.0138889
        k(   15) = (   0.0000000   0.1666667   0.2500000), wk =   0.0277778
        k(   16) = (   0.0000000   0.1666667   0.3333333), wk =   0.0277778
        k(   17) = (   0.0000000   0.1666667   0.4166667), wk =   0.0277778
        k(   18) = (   0.0000000   0.1666667  -0.5000000), wk =   0.0138889
        k(   19) = (   0.0000000   0.2500000   0.2500000), wk =   0.0138889
        k(   20) = (   0.0000000   0.2500000   0.3333333), wk =   0.0277778
        k(   21) = (   0.0000000   0.2500000   0.4166667), wk =   0.0277778
        k(   22) = (   0.0000000   0.2500000  -0.5000000), wk =   0.0138889
        k(   23) = (   0.0000000   0.3333333   0.3333333), wk =   0.0138889
        k(   24) = (   0.0000000   0.3333333   0.4166667), wk =   0.0277778
        k(   25) = (   0.0000000   0.3333333  -0.5000000), wk =   0.0138889
        k(   26) = (   0.0000000   0.4166667   0.4166667), wk =   0.0138889
        k(   27) = (   0.0000000   0.4166667  -0.5000000), wk =   0.0138889
        k(   28) = (   0.0000000  -0.5000000  -0.5000000), wk =   0.0034722
        k(   29) = (   0.0833333   0.0833333   0.0833333), wk =   0.0092593
        k(   30) = (   0.0833333   0.0833333   0.1666667), wk =   0.0277778
        k(   31) = (   0.0833333   0.0833333   0.2500000), wk =   0.0277778
        k(   32) = (   0.0833333   0.0833333   0.3333333), wk =   0.0277778
        k(   33) = (   0.0833333   0.0833333   0.4166667), wk =   0.0277778
        k(   34) = (   0.0833333   0.0833333  -0.5000000), wk =   0.0138889
        k(   35) = (   0.0833333   0.1666667   0.1666667), wk =   0.0277778
        k(   36) = (   0.0833333   0.1666667   0.2500000), wk =   0.0555556
        k(   37) = (   0.0833333   0.1666667   0.3333333), wk =   0.0555556
        k(   38) = (   0.0833333   0.1666667   0.4166667), wk =   0.0555556
        k(   39) = (   0.0833333   0.1666667  -0.5000000), wk =   0.0277778
        k(   40) = (   0.0833333   0.2500000   0.2500000), wk =   0.0277778
        k(   41) = (   0.0833333   0.2500000   0.3333333), wk =   0.0555556
        k(   42) = (   0.0833333   0.2500000   0.4166667), wk =   0.0555556
        k(   43) = (   0.0833333   0.2500000  -0.5000000), wk =   0.0277778
        k(   44) = (   0.0833333   0.3333333   0.3333333), wk =   0.0277778
        k(   45) = (   0.0833333   0.3333333   0.4166667), wk =   0.0555556
        k(   46) = (   0.0833333   0.3333333  -0.5000000), wk =   0.0277778
        k(   47) = (   0.0833333   0.4166667   0.4166667), wk =   0.0277778
        k(   48) = (   0.0833333   0.4166667  -0.5000000), wk =   0.0277778
        k(   49) = (   0.0833333  -0.5000000  -0.5000000), wk =   0.0069444
        k(   50) = (   0.1666667   0.1666667   0.1666667), wk =   0.0092593
        k(   51) = (   0.1666667   0.1666667   0.2500000), wk =   0.0277778
        k(   52) = (   0.1666667   0.1666667   0.3333333), wk =   0.0277778
        k(   53) = (   0.1666667   0.1666667   0.4166667), wk =   0.0277778
        k(   54) = (   0.1666667   0.1666667  -0.5000000), wk =   0.0138889
        k(   55) = (   0.1666667   0.2500000   0.2500000), wk =   0.0277778
        k(   56) = (   0.1666667   0.2500000   0.3333333), wk =   0.0555556
        k(   57) = (   0.1666667   0.2500000   0.4166667), wk =   0.0555556
        k(   58) = (   0.1666667   0.2500000  -0.5000000), wk =   0.0277778
        k(   59) = (   0.1666667   0.3333333   0.3333333), wk =   0.0277778
        k(   60) = (   0.1666667   0.3333333   0.4166667), wk =   0.0555556
        k(   61) = (   0.1666667   0.3333333  -0.5000000), wk =   0.0277778
        k(   62) = (   0.1666667   0.4166667   0.4166667), wk =   0.0277778
        k(   63) = (   0.1666667   0.4166667  -0.5000000), wk =   0.0277778
        k(   64) = (   0.1666667  -0.5000000  -0.5000000), wk =   0.0069444
        k(   65) = (   0.2500000   0.2500000   0.2500000), wk =   0.0092593
        k(   66) = (   0.2500000   0.2500000   0.3333333), wk =   0.0277778
        k(   67) = (   0.2500000   0.2500000   0.4166667), wk =   0.0277778
        k(   68) = (   0.2500000   0.2500000  -0.5000000), wk =   0.0138889
        k(   69) = (   0.2500000   0.3333333   0.3333333), wk =   0.0277778
        k(   70) = (   0.2500000   0.3333333   0.4166667), wk =   0.0555556
        k(   71) = (   0.2500000   0.3333333  -0.5000000), wk =   0.0277778
        k(   72) = (   0.2500000   0.4166667   0.4166667), wk =   0.0277778
        k(   73) = (   0.2500000   0.4166667  -0.5000000), wk =   0.0277778
        k(   74) = (   0.2500000  -0.5000000  -0.5000000), wk =   0.0069444
        k(   75) = (   0.3333333   0.3333333   0.3333333), wk =   0.0092593
        k(   76) = (   0.3333333   0.3333333   0.4166667), wk =   0.0277778
        k(   77) = (   0.3333333   0.3333333  -0.5000000), wk =   0.0138889
        k(   78) = (   0.3333333   0.4166667   0.4166667), wk =   0.0277778
        k(   79) = (   0.3333333   0.4166667  -0.5000000), wk =   0.0277778
        k(   80) = (   0.3333333  -0.5000000  -0.5000000), wk =   0.0069444
        k(   81) = (   0.4166667   0.4166667   0.4166667), wk =   0.0092593
        k(   82) = (   0.4166667   0.4166667  -0.5000000), wk =   0.0138889
        k(   83) = (   0.4166667  -0.5000000  -0.5000000), wk =   0.0069444
        k(   84) = (  -0.5000000  -0.5000000  -0.5000000), wk =   0.0011574

                       cryst. coord.
        k(    1) = (   0.0000000   0.0000000   0.0000000), wk =   0.0011574
        k(    2) = (   0.0000000   0.0000000   0.0833333), wk =   0.0069444
        k(    3) = (   0.0000000   0.0000000   0.1666667), wk =   0.0069444
        k(    4) = (   0.0000000   0.0000000   0.2500000), wk =   0.0069444
        k(    5) = (   0.0000000   0.0000000   0.3333333), wk =   0.0069444
        k(    6) = (   0.0000000   0.0000000   0.4166667), wk =   0.0069444
        k(    7) = (   0.0000000   0.0000000  -0.5000000), wk =   0.0034722
        k(    8) = (   0.0000000   0.0833333   0.0833333), wk =   0.0138889
        k(    9) = (   0.0000000   0.0833333   0.1666667), wk =   0.0277778
        k(   10) = (   0.0000000   0.0833333   0.2500000), wk =   0.0277778
        k(   11) = (   0.0000000   0.0833333   0.3333333), wk =   0.0277778
        k(   12) = (   0.0000000   0.0833333   0.4166667), wk =   0.0277778
        k(   13) = (   0.0000000   0.0833333  -0.5000000), wk =   0.0138889
        k(   14) = (   0.0000000   0.1666667   0.1666667), wk =   0.0138889
        k(   15) = (   0.0000000   0.1666667   0.2500000), wk =   0.0277778
        k(   16) = (   0.0000000   0.1666667   0.3333333), wk =   0.0277778
        k(   17) = (   0.0000000   0.1666667   0.4166667), wk =   0.0277778
        k(   18) = (   0.0000000   0.1666667  -0.5000000), wk =   0.0138889
        k(   19) = (   0.0000000   0.2500000   0.2500000), wk =   0.0138889
        k(   20) = (   0.0000000   0.2500000   0.3333333), wk =   0.0277778
        k(   21) = (   0.0000000   0.2500000   0.4166667), wk =   0.0277778
        k(   22) = (   0.0000000   0.2500000  -0.5000000), wk =   0.0138889
        k(   23) = (   0.0000000   0.3333333   0.3333333), wk =   0.0138889
        k(   24) = (   0.0000000   0.3333333   0.4166667), wk =   0.0277778
        k(   25) = (   0.0000000   0.3333333  -0.5000000), wk =   0.0138889
        k(   26) = (   0.0000000   0.4166667   0.4166667), wk =   0.0138889
        k(   27) = (   0.0000000   0.4166667  -0.5000000), wk =   0.0138889
        k(   28) = (   0.0000000  -0.5000000  -0.5000000), wk =   0.0034722
        k(   29) = (   0.0833333   0.0833333   0.0833333), wk =   0.0092593
        k(   30) = (   0.0833333   0.0833333   0.1666667), wk =   0.0277778
        k(   31) = (   0.0833333   0.0833333   0.2500000), wk =   0.0277778
        k(   32) = (   0.0833333   0.0833333   0.3333333), wk =   0.0277778
        k(   33) = (   0.0833333   0.0833333   0.4166667), wk =   0.0277778
        k(   34) = (   0.0833333   0.0833333  -0.5000000), wk =   0.0138889
        k(   35) = (   0.0833333   0.1666667   0.1666667), wk =   0.0277778
        k(   36) = (   0.0833333   0.1666667   0.2500000), wk =   0.0555556
        k(   37) = (   0.0833333   0.1666667   0.3333333), wk =   0.0555556
        k(   38) = (   0.0833333   0.1666667   0.4166667), wk =   0.0555556
        k(   39) = (   0.0833333   0.1666667  -0.5000000), wk =   0.0277778
        k(   40) = (   0.0833333   0.2500000   0.2500000), wk =   0.0277778
        k(   41) = (   0.0833333   0.2500000   0.3333333), wk =   0.0555556
        k(   42) = (   0.0833333   0.2500000   0.4166667), wk =   0.0555556
        k(   43) = (   0.0833333   0.2500000  -0.5000000), wk =   0.0277778
        k(   44) = (   0.0833333   0.3333333   0.3333333), wk =   0.0277778
        k(   45) = (   0.0833333   0.3333333   0.4166667), wk =   0.0555556
        k(   46) = (   0.0833333   0.3333333  -0.5000000), wk =   0.0277778
        k(   47) = (   0.0833333   0.4166667   0.4166667), wk =   0.0277778
        k(   48) = (   0.0833333   0.4166667  -0.5000000), wk =   0.0277778
        k(   49) = (   0.0833333  -0.5000000  -0.5000000), wk =   0.0069444
        k(   50) = (   0.1666667   0.1666667   0.1666667), wk =   0.0092593
        k(   51) = (   0.1666667   0.1666667   0.2500000), wk =   0.0277778
        k(   52) = (   0.1666667   0.1666667   0.3333333), wk =   0.0277778
        k(   53) = (   0.1666667   0.1666667   0.4166667), wk =   0.0277778
        k(   54) = (   0.1666667   0.1666667  -0.5000000), wk =   0.0138889
        k(   55) = (   0.1666667   0.2500000   0.2500000), wk =   0.0277778
        k(   56) = (   0.1666667   0.2500000   0.3333333), wk =   0.0555556
        k(   57) = (   0.1666667   0.2500000   0.4166667), wk =   0.0555556
        k(   58) = (   0.1666667   0.2500000  -0.5000000), wk =   0.0277778
        k(   59) = (   0.1666667   0.3333333   0.3333333), wk =   0.0277778
        k(   60) = (   0.1666667   0.3333333   0.4166667), wk =   0.0555556
        k(   61) = (   0.1666667   0.3333333  -0.5000000), wk =   0.0277778
        k(   62) = (   0.1666667   0.4166667   0.4166667), wk =   0.0277778
        k(   63) = (   0.1666667   0.4166667  -0.5000000), wk =   0.0277778
        k(   64) = (   0.1666667  -0.5000000  -0.5000000), wk =   0.0069444
        k(   65) = (   0.2500000   0.2500000   0.2500000), wk =   0.0092593
        k(   66) = (   0.2500000   0.2500000   0.3333333), wk =   0.0277778
        k(   67) = (   0.2500000   0.2500000   0.4166667), wk =   0.0277778
        k(   68) = (   0.2500000   0.2500000  -0.5000000), wk =   0.0138889
        k(   69) = (   0.2500000   0.3333333   0.3333333), wk =   0.0277778
        k(   70) = (   0.2500000   0.3333333   0.4166667), wk =   0.0555556
        k(   71) = (   0.2500000   0.3333333  -0.5000000), wk =   0.0277778
        k(   72) = (   0.2500000   0.4166667   0.4166667), wk =   0.0277778
        k(   73) = (   0.2500000   0.4166667  -0.5000000), wk =   0.0277778
        k(   74) = (   0.2500000  -0.5000000  -0.5000000), wk =   0.0069444
        k(   75) = (   0.3333333   0.3333333   0.3333333), wk =   0.0092593
        k(   76) = (   0.3333333   0.3333333   0.4166667), wk =   0.0277778
        k(   77) = (   0.3333333   0.3333333  -0.5000000), wk =   0.0138889
        k(   78) = (   0.3333333   0.4166667   0.4166667), wk =   0.0277778
        k(   79) = (   0.3333333   0.4166667  -0.5000000), wk =   0.0277778
        k(   80) = (   0.3333333  -0.5000000  -0.5000000), wk =   0.0069444
        k(   81) = (   0.4166667   0.4166667   0.4166667), wk =   0.0092593
        k(   82) = (   0.4166667   0.4166667  -0.5000000), wk =   0.0138889
        k(   83) = (   0.4166667  -0.5000000  -0.5000000), wk =   0.0069444
        k(   84) = (  -0.5000000  -0.5000000  -0.5000000), wk =   0.0011574

     Dense  grid:    20479 G-vectors     FFT dimensions: (  36,  36,  36)

     Smooth grid:     7153 G-vectors     FFT dimensions: (  25,  25,  25)

     Dynamical RAM for                 wfc:       0.24 MB

     Dynamical RAM for     wfc (w. buffer):      20.06 MB

     Dynamical RAM for           str. fact:       0.62 MB

     Dynamical RAM for           local pot:       0.00 MB

     Dynamical RAM for          nlocal pot:       0.36 MB

     Dynamical RAM for                qrad:       3.21 MB

     Dynamical RAM for          rho,v,vnew:       2.01 MB

     Dynamical RAM for               rhoin:       0.67 MB

     Dynamical RAM for            rho*nmix:       5.00 MB

     Dynamical RAM for           G-vectors:       1.23 MB

     Dynamical RAM for          h,s,v(r/c):       0.05 MB

     Dynamical RAM for          <psi|beta>:       0.01 MB

     Dynamical RAM for                 psi:       0.47 MB

     Dynamical RAM for                hpsi:       0.47 MB

     Dynamical RAM for                spsi:       0.47 MB

     Dynamical RAM for      wfcinit/wfcrot:       0.48 MB

     Dynamical RAM for           addusdens:      58.43 MB

     Dynamical RAM for          addusforce:      58.59 MB

     Dynamical RAM for         addusstress:      62.81 MB

     Estimated static dynamical RAM per process >      30.88 MB

     Estimated max dynamical RAM per process >      98.69 MB

     Check: negative core charge=   -0.000003

     Initial potential from superposition of free atoms

     starting charge      25.9999, renormalised to      26.0000
     Starting wfcs are   17 randomized atomic wfcs
     Checking if some PAW data can be deallocated... 

     total cpu time spent up to now is        6.0 secs

     Self-consistent Calculation

     iteration #  1     ecut=    50.00 Ry     beta= 0.40
     Davidson diagonalization with overlap

---- Real-time Memory Report at c_bands before calling an iterative solver
           105 MiB given to the printing process from OS
             0 MiB allocation reported by mallinfo(arena+hblkhd)
          4508 MiB available memory on the node where the printing process lives
------------------
     ethr =  1.00E-02,  avg # of iterations =  2.6

     total cpu time spent up to now is       25.2 secs

     WARNING: integrated charge=    26.00019615, expected=    26.00000000

     total energy              =    -502.99997933 Ry
     estimated scf accuracy    <       0.52641225 Ry

     iteration #  2     ecut=    50.00 Ry     beta= 0.40
     Davidson diagonalization with overlap

---- Real-time Memory Report at c_bands before calling an iterative solver
           140 MiB given to the printing process from OS
             0 MiB allocation reported by mallinfo(arena+hblkhd)
          4485 MiB available memory on the node where the printing process lives
------------------
     ethr =  2.02E-03,  avg # of iterations =  2.0

     total cpu time spent up to now is       34.1 secs

     WARNING: integrated charge=    26.00014273, expected=    26.00000000

     total energy              =    -503.14518325 Ry
     estimated scf accuracy    <       0.13138627 Ry

     iteration #  3     ecut=    50.00 Ry     beta= 0.40
     Davidson diagonalization with overlap

---- Real-time Memory Report at c_bands before calling an iterative solver
           140 MiB given to the printing process from OS
             0 MiB allocation reported by mallinfo(arena+hblkhd)
          4483 MiB available memory on the node where the printing process lives
------------------
     ethr =  5.05E-04,  avg # of iterations =  2.2
     Minimization algorithm failed to find Fermi energy: reverting to bisection
     Possible cause: smearing is larger than the electronic band-gap.

     total cpu time spent up to now is       53.6 secs

     WARNING: integrated charge=    26.00005146, expected=    26.00000000

     total energy              =    -503.16485104 Ry
     estimated scf accuracy    <       0.00618379 Ry

     iteration #  4     ecut=    50.00 Ry     beta= 0.40
     Davidson diagonalization with overlap

---- Real-time Memory Report at c_bands before calling an iterative solver
           140 MiB given to the printing process from OS
             0 MiB allocation reported by mallinfo(arena+hblkhd)
          4482 MiB available memory on the node where the printing process lives
------------------
     ethr =  2.38E-05,  avg # of iterations =  2.4
     Minimization algorithm failed to find Fermi energy: reverting to bisection
     Possible cause: smearing is larger than the electronic band-gap.

     total cpu time spent up to now is       68.4 secs

     WARNING: integrated charge=    26.00001126, expected=    26.00000000

     total energy              =    -503.16514801 Ry
     estimated scf accuracy    <       0.00048284 Ry

     iteration #  5     ecut=    50.00 Ry     beta= 0.40
     Davidson diagonalization with overlap

---- Real-time Memory Report at c_bands before calling an iterative solver
           141 MiB given to the printing process from OS
             0 MiB allocation reported by mallinfo(arena+hblkhd)
          4479 MiB available memory on the node where the printing process lives
------------------
     ethr =  1.86E-06,  avg # of iterations =  2.2
     Minimization algorithm failed to find Fermi energy: reverting to bisection
     Possible cause: smearing is larger than the electronic band-gap.

     total cpu time spent up to now is       89.4 secs

     WARNING: integrated charge=    26.00000572, expected=    26.00000000

     total energy              =    -503.16519811 Ry
     estimated scf accuracy    <       0.00001155 Ry

     iteration #  6     ecut=    50.00 Ry     beta= 0.40
     Davidson diagonalization with overlap

---- Real-time Memory Report at c_bands before calling an iterative solver
           141 MiB given to the printing process from OS
             0 MiB allocation reported by mallinfo(arena+hblkhd)
          4477 MiB available memory on the node where the printing process lives
------------------
     ethr =  4.44E-08,  avg # of iterations =  2.0
     Minimization algorithm failed to find Fermi energy: reverting to bisection
     Possible cause: smearing is larger than the electronic band-gap.

     total cpu time spent up to now is      115.7 secs

     total energy              =    -503.16520023 Ry
     estimated scf accuracy    <       0.00000821 Ry

     iteration #  7     ecut=    50.00 Ry     beta= 0.40
     Davidson diagonalization with overlap

---- Real-time Memory Report at c_bands before calling an iterative solver
           141 MiB given to the printing process from OS
             0 MiB allocation reported by mallinfo(arena+hblkhd)
          4475 MiB available memory on the node where the printing process lives
------------------
     ethr =  3.16E-08,  avg # of iterations =  1.6
     Minimization algorithm failed to find Fermi energy: reverting to bisection
     Possible cause: smearing is larger than the electronic band-gap.

     total cpu time spent up to now is      125.7 secs

     total energy              =    -503.16520090 Ry
     estimated scf accuracy    <       0.00000004 Ry

     iteration #  8     ecut=    50.00 Ry     beta= 0.40
     Davidson diagonalization with overlap

---- Real-time Memory Report at c_bands before calling an iterative solver
           141 MiB given to the printing process from OS
             0 MiB allocation reported by mallinfo(arena+hblkhd)
          4475 MiB available memory on the node where the printing process lives
------------------
     ethr =  1.38E-10,  avg # of iterations =  2.3
     Minimization algorithm failed to find Fermi energy: reverting to bisection
     Possible cause: smearing is larger than the electronic band-gap.

     total cpu time spent up to now is      150.8 secs

     total energy              =    -503.16520093 Ry
     estimated scf accuracy    <       0.00000011 Ry

     iteration #  9     ecut=    50.00 Ry     beta= 0.40
     Davidson diagonalization with overlap

---- Real-time Memory Report at c_bands before calling an iterative solver
           142 MiB given to the printing process from OS
             0 MiB allocation reported by mallinfo(arena+hblkhd)
          4476 MiB available memory on the node where the printing process lives
------------------
     ethr =  1.38E-10,  avg # of iterations =  1.9
     Minimization algorithm failed to find Fermi energy: reverting to bisection
     Possible cause: smearing is larger than the electronic band-gap.

     total cpu time spent up to now is      174.2 secs

     total energy              =    -503.16520092 Ry
     estimated scf accuracy    <       0.00000003 Ry

     iteration # 10     ecut=    50.00 Ry     beta= 0.40
     Davidson diagonalization with overlap

---- Real-time Memory Report at c_bands before calling an iterative solver
           142 MiB given to the printing process from OS
             0 MiB allocation reported by mallinfo(arena+hblkhd)
          4476 MiB available memory on the node where the printing process lives
------------------
     ethr =  1.26E-10,  avg # of iterations =  2.0
     Minimization algorithm failed to find Fermi energy: reverting to bisection
     Possible cause: smearing is larger than the electronic band-gap.

     total cpu time spent up to now is      187.8 secs

     End of self-consistent calculation

          k = 0.0000 0.0000 0.0000 (   925 PWs)   bands (ev):

  -114.8666 -69.0478 -69.0478 -69.0478  -7.5165   3.6599   3.6599   4.4451
     4.4451   4.4451   8.3761   8.9869   8.9869   8.9869  23.2582  23.2582
    25.3313

     occupation numbers 
     1.0000   1.0000   1.0000   1.0000   1.0000   1.0000   1.0000   1.0000
     1.0000   1.0000   1.0000   1.0000   1.0000   1.0000   0.0000   0.0000
     0.0000

          k = 0.0000 0.0000 0.0833 (   916 PWs)   bands (ev):

  -114.8666 -69.0484 -69.0477 -69.0477  -7.4650   3.6659   3.6762   4.4161
     4.4161   4.4467   7.5976   9.0464   9.0464   9.7287  22.3477  23.3582
    25.2733

     occupation numbers 
     1.0000   1.0000   1.0000   1.0000   1.0000   1.0000   1.0000   1.0000
     1.0000   1.0000   1.0000   1.0000   1.0000   1.0401   0.0000   0.0000
     0.0000

          k = 0.0000 0.0000 0.1667 (   912 PWs)   bands (ev):

  -114.8665 -69.0499 -69.0475 -69.0475  -7.3196   3.6823   3.6920   4.3394
     4.3394   4.4511   6.6367   9.2082   9.2082  10.6481  20.8193  23.6595
    25.0986

     occupation numbers 
     1.0000   1.0000   1.0000   1.0000   1.0000   1.0000   1.0000   1.0000
     1.0000   1.0000   1.0000   1.0001   1.0001   0.0000   0.0000   0.0000
     0.0000

          k = 0.0000 0.0000 0.2500 (   908 PWs)   bands (ev):

  -114.8663 -69.0522 -69.0473 -69.0473  -7.1086   3.6043   3.7047   4.2403
     4.2403   4.4571   5.8851   9.4284   9.4284  11.5484  19.2016  24.1658
    24.8236

     occupation numbers 
     1.0000   1.0000   1.0000   1.0000   1.0000   1.0000   1.0000   1.0000
     1.0000   1.0000   1.0000   1.0088   1.0088   0.0000   0.0000   0.0000
     0.0000

          k = 0.0000 0.0000 0.3333 (   912 PWs)   bands (ev):

  -114.8662 -69.0544 -69.0472 -69.0472  -6.8809   3.3250   3.7271   4.1468
     4.1468   4.4631   5.5020   9.6492   9.6492  12.4757  17.6190  24.5107
    24.5107

     occupation numbers 
     1.0000   1.0000   1.0000   1.0000   1.0000   1.0000   1.0000   1.0000
     1.0000   1.0000   1.0000   1.0831   1.0831   0.0000   0.0000   0.0000
     0.0000

          k = 0.0000 0.0000 0.4167 (   888 PWs)   bands (ev):

  -114.8661 -69.0558 -69.0469 -69.0469  -6.7013   2.9989   3.7437   4.0816
     4.0816   4.4676   5.3997   9.8121   9.8121  13.4738  16.1647  24.2606
    24.2606

     occupation numbers 
     1.0000   1.0000   1.0000   1.0000   1.0000   1.0000   1.0000   1.0000
     1.0000   1.0000   1.0000   0.8534   0.8534   0.0000   0.0000   0.0000
     0.0000

          k = 0.0000 0.0000-0.5000 (   884 PWs)   bands (ev):

  -114.8660 -69.0565 -69.0468 -69.0468  -6.6325   2.8604   3.7497   4.0583
     4.0583   4.4692   5.3890   9.8721   9.8721  14.2768  15.1984  24.1651
    24.1651

     occupation numbers 
     1.0000   1.0000   1.0000   1.0000   1.0000   1.0000   1.0000   1.0000
     1.0000   1.0000   1.0000   0.6432   0.6432   0.0000   0.0000   0.0000
     0.0000

          k = 0.0000 0.0833 0.0833 (   915 PWs)   bands (ev):

  -114.8665 -69.0483 -69.0482 -69.0476  -7.4144   3.6759   3.6915   4.3855
     4.4052   4.4321   7.3116   8.7952   9.1017  10.2859  22.2022  22.7105
    25.2317

     occupation numbers 
     1.0000   1.0000   1.0000   1.0000   1.0000   1.0000   1.0000   1.0000
     1.0000   1.0000   1.0000   1.0000   1.0000   0.0013   0.0000   0.0000
     0.0000

          k = 0.0000 0.0833 0.1667 (   911 PWs)   bands (ev):

  -114.8664 -69.0499 -69.0481 -69.0475  -7.2718   3.6888   3.7201   4.3073
     4.3387   4.4317   6.6057   8.7860   9.2522  11.1091  20.8649  22.6705
    25.1013

     occupation numbers 
     1.0000   1.0000   1.0000   1.0000   1.0000   1.0000   1.0000   1.0000
     1.0000   1.0000   1.0000   1.0000   1.0002   0.0000   0.0000   0.0000
     0.0000

          k = 0.0000 0.0833 0.2500 (   908 PWs)   bands (ev):

  -114.8663 -69.0521 -69.0480 -69.0473  -7.0651   3.6322   3.7273   4.2171
     4.2451   4.4387   5.9207   8.9781   9.4571  11.9377  19.2365  22.8603
    24.8842

     occupation numbers 
     1.0000   1.0000   1.0000   1.0000   1.0000   1.0000   1.0000   1.0000
     1.0000   1.0000   1.0000   1.0000   1.0141   0.0000   0.0000   0.0000
     0.0000

          k = 0.0000 0.0833 0.3333 (   902 PWs)   bands (ev):

  -114.8662 -69.0543 -69.0477 -69.0471  -6.8424   3.3812   3.7484   4.1396
     4.1558   4.4463   5.5339   9.2180   9.6626  12.7938  17.6404  23.0362
    24.6246

     occupation numbers 
     1.0000   1.0000   1.0000   1.0000   1.0000   1.0000   1.0000   1.0000
     1.0000   1.0000   1.0000   1.0001   1.0830   0.0000   0.0000   0.0000
     0.0000

          k = 0.0000 0.0833 0.4167 (   896 PWs)   bands (ev):

  -114.8661 -69.0559 -69.0476 -69.0469  -6.6672   3.0803   3.7664   4.0802
     4.0932   4.4520   5.4174   9.4096   9.8141  13.7383  16.1753  23.1299
    24.4101

     occupation numbers 
     1.0000   1.0000   1.0000   1.0000   1.0000   1.0000   1.0000   1.0000
     1.0000   1.0000   1.0000   1.0063   0.8473   0.0000   0.0000   0.0000
     0.0000

          k = 0.0000 0.0833-0.5000 (   896 PWs)   bands (ev):

  -114.8660 -69.0565 -69.0475 -69.0468  -6.6002   2.9509   3.7734   4.0573
     4.0708   4.4540   5.4020   9.4827   9.8698  14.6664  15.0596  23.1527
    24.3269

     occupation numbers 
     1.0000   1.0000   1.0000   1.0000   1.0000   1.0000   1.0000   1.0000
     1.0000   1.0000   1.0000   1.0207   0.6519   0.0000   0.0000   0.0000
     0.0000

          k = 0.0000 0.1667 0.1667 (   911 PWs)   bands (ev):

  -114.8663 -69.0498 -69.0497 -69.0473  -7.1372   3.6918   3.7887   4.2302
     4.3203   4.3967   6.4117   8.2797   9.3720  11.8697  20.9569  21.0524
    25.0941

     occupation numbers 
     1.0000   1.0000   1.0000   1.0000   1.0000   1.0000   1.0000   1.0000
     1.0000   1.0000   1.0000   1.0000   1.0031   0.0000   0.0000   0.0000
     0.0000

          k = 0.0000 0.1667 0.2500 (   903 PWs)   bands (ev):

  -114.8662 -69.0519 -69.0496 -69.0471  -6.9430   3.6586   3.8271   4.1622
     4.2553   4.3920   5.9919   8.1768   9.5354  12.6131  19.3039  21.1712
    25.0464

     occupation numbers 
     1.0000   1.0000   1.0000   1.0000   1.0000   1.0000   1.0000   1.0000
     1.0000   1.0000   1.0000   1.0000   1.0400   0.0000   0.0000   0.0000
     0.0000

          k = 0.0000 0.1667 0.3333 (   896 PWs)   bands (ev):

  -114.8661 -69.0541 -69.0494 -69.0469  -6.7348   3.5091   3.8307   4.1240
     4.1800   4.4012   5.6268   8.3358   9.6989  13.3287  17.7099  21.3584
    24.9508

     occupation numbers 
     1.0000   1.0000   1.0000   1.0000   1.0000   1.0000   1.0000   1.0000
     1.0000   1.0000   1.0000   1.0000   1.0695   0.0000   0.0000   0.0000
     0.0000

          k = 0.0000 0.1667 0.4167 (   902 PWs)   bands (ev):

  -114.8660 -69.0558 -69.0493 -69.0468  -6.5721   3.2981   3.8410   4.0808
     4.1251   4.4098   5.4739   8.5303   9.8192  14.0637  16.3499  21.5060
    24.8490

     occupation numbers 
     1.0000   1.0000   1.0000   1.0000   1.0000   1.0000   1.0000   1.0000
     1.0000   1.0000   1.0000   1.0000   0.8311   0.0000   0.0000   0.0000
     0.0000

          k = 0.0000 0.1667-0.5000 (   906 PWs)   bands (ev):

  -114.8659 -69.0565 -69.0493 -69.0467  -6.5100   3.2008   3.8472   4.0591
     4.1052   4.4130   5.4440   8.6142   9.8634  14.6313  15.5538  21.5631
    24.8051

     occupation numbers 
     1.0000   1.0000   1.0000   1.0000   1.0000   1.0000   1.0000   1.0000
     1.0000   1.0000   1.0000   1.0000   0.6760   0.0000   0.0000   0.0000
     0.0000

          k = 0.0000 0.2500 0.2500 (   909 PWs)   bands (ev):

  -114.8661 -69.0519 -69.0517 -69.0470  -6.7678   3.6512   3.9572   4.1135
     4.2517   4.3479   5.9717   7.5811   9.6418  13.2068  18.9769  20.0198
    25.2550

     occupation numbers 
     1.0000   1.0000   1.0000   1.0000   1.0000   1.0000   1.0000   1.0000
     1.0000   1.0000   1.0000   1.0000   1.0823   0.0000   0.0000   0.0000
     0.0000

          k = 0.0000 0.2500 0.3333 (   900 PWs)   bands (ev):

  -114.8659 -69.0540 -69.0516 -69.0467  -6.5815   3.6119   4.0031   4.1143
     4.2111   4.3430   5.7644   7.4502   9.7480  13.6270  17.8161  20.0195
    25.4375

     occupation numbers 
     1.0000   1.0000   1.0000   1.0000   1.0000   1.0000   1.0000   1.0000
     1.0000   1.0000   1.0000   1.0000   1.0109   0.0000   0.0000   0.0000
     0.0000

          k = 0.0000 0.2500 0.4167 (   909 PWs)   bands (ev):

  -114.8659 -69.0557 -69.0516 -69.0466  -6.4371   3.5530   3.9992   4.0979
     4.1689   4.3531   5.5800   7.5730   9.8258  13.8543  16.9186  20.1907
    25.5449

     occupation numbers 
     1.0000   1.0000   1.0000   1.0000   1.0000   1.0000   1.0000   1.0000
     1.0000   1.0000   1.0000   1.0000   0.8095   0.0000   0.0000   0.0000
     0.0000

          k = 0.0000 0.2500-0.5000 (   900 PWs)   bands (ev):

  -114.8658 -69.0563 -69.0515 -69.0465  -6.3823   3.5218   3.9971   4.0768
     4.1527   4.3578   5.5260   7.6508   9.8543  13.9183  16.5988  20.2695
    25.5770

     occupation numbers 
     1.0000   1.0000   1.0000   1.0000   1.0000   1.0000   1.0000   1.0000
     1.0000   1.0000   1.0000   1.0000   0.7096   0.0000   0.0000   0.0000
     0.0000

          k = 0.0000 0.3333 0.3333 (   894 PWs)   bands (ev):

  -114.8658 -69.0538 -69.0538 -69.0465  -6.4199   3.6725   4.1043   4.1966
     4.2295   4.2990   5.8546   6.8535   9.7966  13.5315  17.8319  19.3599
    25.9829

     occupation numbers 
     1.0000   1.0000   1.0000   1.0000   1.0000   1.0000   1.0000   1.0000
     1.0000   1.0000   1.0000   1.0000   0.8996   0.0000   0.0000   0.0000
     0.0000

          k = 0.0000 0.3333 0.4167 (   911 PWs)   bands (ev):

  -114.8657 -69.0556 -69.0538 -69.0464  -6.2956   3.7208   4.1156   4.2128
     4.2727   4.2978   5.7487   6.7501   9.8319  13.2122  17.6976  19.3411
    25.7400

     occupation numbers 
     1.0000   1.0000   1.0000   1.0000   1.0000   1.0000   1.0000   1.0000
     1.0000   1.0000   1.0000   1.0000   0.7888   0.0000   0.0000   0.0000
     0.0000

          k = 0.0000 0.3333-0.5000 (   904 PWs)   bands (ev):

  -114.8657 -69.0561 -69.0538 -69.0463  -6.2487   3.7452   4.1236   4.2009
     4.2715   4.3034   5.6683   6.7995   9.8448  13.0417  17.6281  19.4202
    25.4682

     occupation numbers 
     1.0000   1.0000   1.0000   1.0000   1.0000   1.0000   1.0000   1.0000
     1.0000   1.0000   1.0000   1.0000   0.7438   0.0000   0.0000   0.0000
     0.0000

          k = 0.0000 0.4167 0.4167 (   908 PWs)   bands (ev):

  -114.8656 -69.0554 -69.0554 -69.0463  -6.1875   3.8114   4.1654   4.2402
     4.2629   4.4739   5.9061   6.2423   9.8361  12.5565  18.3221  18.9582
    24.9705

     occupation numbers 
     1.0000   1.0000   1.0000   1.0000   1.0000   1.0000   1.0000   1.0000
     1.0000   1.0000   1.0000   1.0000   0.7743   0.0000   0.0000   0.0000
     0.0000

          k = 0.0000 0.4167-0.5000 (   904 PWs)   bands (ev):

  -114.8656 -69.0559 -69.0554 -69.0462  -6.1468   3.8434   4.1943   4.2365
     4.2640   4.5351   5.8614   6.1947   9.8376  12.2782  18.4691  18.9640
    24.6357

     occupation numbers 
     1.0000   1.0000   1.0000   1.0000   1.0000   1.0000   1.0000   1.0000
     1.0000   1.0000   1.0000   1.0000   0.7691   0.0000   0.0000   0.0000
     0.0000

          k = 0.0000-0.5000-0.5000 (   888 PWs)   bands (ev):

  -114.8655 -69.0558 -69.0558 -69.0461  -6.1086   3.8720   4.2350   4.2497
     4.2497   4.6314   5.9672   5.9672   9.8349  11.9660  18.8221  18.8221
    24.2645

     occupation numbers 
     1.0000   1.0000   1.0000   1.0000   1.0000   1.0000   1.0000   1.0000
     1.0000   1.0000   1.0000   1.0000   0.7784   0.0000   0.0000   0.0000
     0.0000

          k = 0.0833 0.0833 0.0833 (   904 PWs)   bands (ev):

  -114.8665 -69.0482 -69.0482 -69.0481  -7.3647   3.6978   3.6978   4.3653
     4.4014   4.4014   7.1200   8.8588   8.8588  10.7240  22.2406  22.2406
    24.3187

     occupation numbers 
     1.0000   1.0000   1.0000   1.0000   1.0000   1.0000   1.0000   1.0000
     1.0000   1.0000   1.0000   1.0000   1.0000   0.0000   0.0000   0.0000
     0.0000

          k = 0.0833 0.0833 0.1667 (   910 PWs)   bands (ev):

  -114.8664 -69.0498 -69.0481 -69.0481  -7.2247   3.7151   3.7304   4.3004
     4.3203   4.4069   6.5673   8.7252   9.0319  11.4704  20.9029  22.3411
    24.0853

     occupation numbers 
     1.0000   1.0000   1.0000   1.0000   1.0000   1.0000   1.0000   1.0000
     1.0000   1.0000   1.0000   1.0000   1.0000   0.0000   0.0000   0.0000
     0.0000

          k = 0.0833 0.0833 0.2500 (   912 PWs)   bands (ev):

  -114.8663 -69.0521 -69.0480 -69.0479  -7.0221   3.6711   3.7397   4.2151
     4.2322   4.4167   5.9476   8.8337   9.2681  12.2386  19.2821  22.4595
    24.1368

     occupation numbers 
     1.0000   1.0000   1.0000   1.0000   1.0000   1.0000   1.0000   1.0000
     1.0000   1.0000   1.0000   1.0000   1.0003   0.0000   0.0000   0.0000
     0.0000

          k = 0.0833 0.0833 0.3333 (   903 PWs)   bands (ev):

  -114.8661 -69.0542 -69.0477 -69.0477  -6.8042   3.4392   3.7659   4.1146
     4.1812   4.4269   5.5659   9.0299   9.5060  13.0323  17.6851  22.5363
    24.2089

     occupation numbers 
     1.0000   1.0000   1.0000   1.0000   1.0000   1.0000   1.0000   1.0000
     1.0000   1.0000   1.0000   1.0000   1.0283   0.0000   0.0000   0.0000
     0.0000

          k = 0.0833 0.0833 0.4167 (   898 PWs)   bands (ev):

  -114.8660 -69.0559 -69.0476 -69.0475  -6.6331   3.1592   3.7876   4.0421
     4.1381   4.4346   5.4403   9.2013   9.6822  13.9187  16.2295  22.5490
    24.2451

     occupation numbers 
     1.0000   1.0000   1.0000   1.0000   1.0000   1.0000   1.0000   1.0000
     1.0000   1.0000   1.0000   1.0000   1.0784   0.0000   0.0000   0.0000
     0.0000

          k = 0.0833 0.0833-0.5000 (   904 PWs)   bands (ev):

  -114.8660 -69.0565 -69.0475 -69.0475  -6.5677   3.0377   3.7965   4.0151
     4.1202   4.4374   5.4215   9.2688   9.7473  14.9452  14.9970  22.5414
    24.2534

     occupation numbers 
     1.0000   1.0000   1.0000   1.0000   1.0000   1.0000   1.0000   1.0000
     1.0000   1.0000   1.0000   1.0003   1.0120   0.0000   0.0000   0.0000
     0.0000

          k = 0.0833 0.1667 0.1667 (   913 PWs)   bands (ev):

  -114.8663 -69.0498 -69.0497 -69.0480  -7.0924   3.7291   3.7942   4.2383
     4.3025   4.3618   6.3770   8.3559   9.0814  12.1329  20.9332  21.1113
    23.7993

     occupation numbers 
     1.0000   1.0000   1.0000   1.0000   1.0000   1.0000   1.0000   1.0000
     1.0000   1.0000   1.0000   1.0000   1.0000   0.0000   0.0000   0.0000
     0.0000

          k = 0.0833 0.1667 0.2500 (   907 PWs)   bands (ev):

  -114.8662 -69.0519 -69.0495 -69.0478  -6.9016   3.7086   3.8292   4.1661
     4.2456   4.3621   5.9947   8.2178   9.2758  12.8003  19.3801  21.1141
    23.9801

     occupation numbers 
     1.0000   1.0000   1.0000   1.0000   1.0000   1.0000   1.0000   1.0000
     1.0000   1.0000   1.0000   1.0000   1.0003   0.0000   0.0000   0.0000
     0.0000

          k = 0.0833 0.1667 0.3333 (   901 PWs)   bands (ev):

  -114.8660 -69.0541 -69.0494 -69.0476  -6.6974   3.5701   3.8369   4.0860
     4.2155   4.3767   5.6563   8.3205   9.4826  13.4473  17.8075  21.1775
    24.2384

     occupation numbers 
     1.0000   1.0000   1.0000   1.0000   1.0000   1.0000   1.0000   1.0000
     1.0000   1.0000   1.0000   1.0000   1.0207   0.0000   0.0000   0.0000
     0.0000

          k = 0.0833 0.1667 0.4167 (   902 PWs)   bands (ev):

  -114.8659 -69.0557 -69.0492 -69.0474  -6.5379   3.3681   3.8558   4.0121
     4.1907   4.3891   5.5114   8.4743   9.6386  14.1105  16.4839  21.1925
    24.4474

     occupation numbers 
     1.0000   1.0000   1.0000   1.0000   1.0000   1.0000   1.0000   1.0000
     1.0000   1.0000   1.0000   1.0000   1.0817   0.0000   0.0000   0.0000
     0.0000

          k = 0.0833 0.1667-0.5000 (   906 PWs)   bands (ev):

  -114.8659 -69.0564 -69.0492 -69.0474  -6.4772   3.2748   3.8679   3.9802
     4.1776   4.3939   5.4831   8.5432   9.6967  14.5799  15.7734  21.1897
    24.5296

     occupation numbers 
     1.0000   1.0000   1.0000   1.0000   1.0000   1.0000   1.0000   1.0000
     1.0000   1.0000   1.0000   1.0000   1.0710   0.0000   0.0000   0.0000
     0.0000

          k = 0.0833 0.2500 0.2500 (   895 PWs)   bands (ev):

  -114.8660 -69.0518 -69.0516 -69.0475  -6.7287   3.7017   3.9529   4.1130
     4.2582   4.3130   5.9586   7.6786   9.4047  13.3071  19.1300  19.9262
    24.2350

     occupation numbers 
     1.0000   1.0000   1.0000   1.0000   1.0000   1.0000   1.0000   1.0000
     1.0000   1.0000   1.0000   1.0000   1.0058   0.0000   0.0000   0.0000
     0.0000

          k = 0.0833 0.2500 0.3333 (   904 PWs)   bands (ev):

  -114.8659 -69.0540 -69.0516 -69.0474  -6.5451   3.6632   3.9956   4.0687
     4.2508   4.3192   5.7851   7.5240   9.5477  13.6707  17.9429  19.8790
    24.6018

     occupation numbers 
     1.0000   1.0000   1.0000   1.0000   1.0000   1.0000   1.0000   1.0000
     1.0000   1.0000   1.0000   1.0000   1.0455   0.0000   0.0000   0.0000
     0.0000

          k = 0.0833 0.2500 0.4167 (   908 PWs)   bands (ev):

  -114.8658 -69.0556 -69.0515 -69.0473  -6.4028   3.6047   3.9903   4.0120
     4.2387   4.3377   5.6406   7.6042   9.6571  13.8764  17.0279  19.9470
    24.9498

     occupation numbers 
     1.0000   1.0000   1.0000   1.0000   1.0000   1.0000   1.0000   1.0000
     1.0000   1.0000   1.0000   1.0000   1.0833   0.0000   0.0000   0.0000
     0.0000

          k = 0.0833 0.2500-0.5000 (   906 PWs)   bands (ev):

  -114.8658 -69.0562 -69.0514 -69.0472  -6.3489   3.5733   3.9691   4.0020
     4.2277   4.3453   5.5998   7.6646   9.6982  13.9389  16.6991  19.9713
    25.1129

     occupation numbers 
     1.0000   1.0000   1.0000   1.0000   1.0000   1.0000   1.0000   1.0000
     1.0000   1.0000   1.0000   1.0000   1.0700   0.0000   0.0000   0.0000
     0.0000

          k = 0.0833 0.3333 0.3333 (   912 PWs)   bands (ev):

  -114.8658 -69.0539 -69.0538 -69.0473  -6.3846   3.7095   4.0596   4.1210
     4.2717   4.3173   5.8797   6.9805   9.6250  13.5672  17.9020  19.2006
    25.0837

     occupation numbers 
     1.0000   1.0000   1.0000   1.0000   1.0000   1.0000   1.0000   1.0000
     1.0000   1.0000   1.0000   1.0000   1.0785   0.0000   0.0000   0.0000
     0.0000

          k = 0.0833 0.3333 0.4167 (   916 PWs)   bands (ev):

  -114.8657 -69.0555 -69.0538 -69.0471  -6.2612   3.7538   4.0281   4.1417
     4.2677   4.3668   5.8385   6.8559   9.6853  13.2710  17.6905  19.1268
    25.5132

     occupation numbers 
     1.0000   1.0000   1.0000   1.0000   1.0000   1.0000   1.0000   1.0000
     1.0000   1.0000   1.0000   1.0000   1.0771   0.0000   0.0000   0.0000
     0.0000

          k = 0.0833 0.3333-0.5000 (   916 PWs)   bands (ev):

  -114.8657 -69.0561 -69.0538 -69.0471  -6.2147   3.7846   3.9947   4.1515
     4.2540   4.3819   5.7930   6.8862   9.7083  13.1119  17.5999  19.1608
    25.9012

     occupation numbers 
     1.0000   1.0000   1.0000   1.0000   1.0000   1.0000   1.0000   1.0000
     1.0000   1.0000   1.0000   1.0000   1.0623   0.0000   0.0000   0.0000
     0.0000

          k = 0.0833 0.4167 0.4167 (   909 PWs)   bands (ev):

  -114.8656 -69.0554 -69.0553 -69.0470  -6.1529   3.8452   4.0600   4.1451
     4.2584   4.5045   6.0306   6.4078   9.7080  12.6405  18.1949  18.7533
    25.1461

     occupation numbers 
     1.0000   1.0000   1.0000   1.0000   1.0000   1.0000   1.0000   1.0000
     1.0000   1.0000   1.0000   1.0000   1.0625   0.0000   0.0000   0.0000
     0.0000

          k = 0.0833 0.4167-0.5000 (   912 PWs)   bands (ev):

  -114.8656 -69.0559 -69.0553 -69.0469  -6.1122   3.8884   4.0627   4.1516
     4.2360   4.5569   6.0357   6.3521   9.7169  12.3694  18.3128  18.7323
    24.8737

     occupation numbers 
     1.0000   1.0000   1.0000   1.0000   1.0000   1.0000   1.0000   1.0000
     1.0000   1.0000   1.0000   1.0000   1.0541   0.0000   0.0000   0.0000
     0.0000

          k = 0.0833-0.5000-0.5000 (   900 PWs)   bands (ev):

  -114.8655 -69.0558 -69.0558 -69.0469  -6.0738   3.9227   4.1363   4.1363
     4.1842   4.6323   6.1611   6.1611   9.7201  12.0615  18.6011  18.6011
    24.5420

     occupation numbers 
     1.0000   1.0000   1.0000   1.0000   1.0000   1.0000   1.0000   1.0000
     1.0000   1.0000   1.0000   1.0000   1.0506   0.0000   0.0000   0.0000
     0.0000

          k = 0.1667 0.1667 0.1667 (   922 PWs)   bands (ev):

  -114.8662 -69.0497 -69.0497 -69.0496  -6.9665   3.8094   3.8094   4.2513
     4.2712   4.2712   6.2419   8.5637   8.5637  12.6497  20.8527  20.8527
    22.6246

     occupation numbers 
     1.0000   1.0000   1.0000   1.0000   1.0000   1.0000   1.0000   1.0000
     1.0000   1.0000   1.0000   1.0000   1.0000   0.0000   0.0000   0.0000
     0.0000

          k = 0.1667 0.1667 0.2500 (   911 PWs)   bands (ev):

  -114.8661 -69.0518 -69.0495 -69.0493  -6.7855   3.8305   3.8309   4.1560
     4.2415   4.2943   5.9839   8.2317   8.8486  13.1692  19.5240  20.7002
    22.7915

     occupation numbers 
     1.0000   1.0000   1.0000   1.0000   1.0000   1.0000   1.0000   1.0000
     1.0000   1.0000   1.0000   1.0000   1.0000   0.0000   0.0000   0.0000
     0.0000

          k = 0.1667 0.1667 0.3333 (   899 PWs)   bands (ev):

  -114.8659 -69.0539 -69.0492 -69.0491  -6.5926   3.7141   3.8542   4.0478
     4.2597   4.3206   5.7346   8.1557   9.1386  13.6552  18.0339  20.4907
    23.4178

     occupation numbers 
     1.0000   1.0000   1.0000   1.0000   1.0000   1.0000   1.0000   1.0000
     1.0000   1.0000   1.0000   1.0000   1.0000   0.0000   0.0000   0.0000
     0.0000

          k = 0.1667 0.1667 0.4167 (   910 PWs)   bands (ev):

  -114.8659 -69.0557 -69.0491 -69.0491  -6.4426   3.5459   3.8764   3.9678
     4.2541   4.3412   5.6231   8.2014   9.3564  14.1212  16.8350  20.2971
    24.0155

     occupation numbers 
     1.0000   1.0000   1.0000   1.0000   1.0000   1.0000   1.0000   1.0000
     1.0000   1.0000   1.0000   1.0000   1.0022   0.0000   0.0000   0.0000
     0.0000

          k = 0.1667 0.1667-0.5000 (   904 PWs)   bands (ev):

  -114.8658 -69.0563 -69.0490 -69.0490  -6.3856   3.4675   3.8919   3.9320
     4.2449   4.3495   5.6025   8.2345   9.4378  14.3882  16.3001  20.2174
    24.2725

     occupation numbers 
     1.0000   1.0000   1.0000   1.0000   1.0000   1.0000   1.0000   1.0000
     1.0000   1.0000   1.0000   1.0000   1.0103   0.0000   0.0000   0.0000
     0.0000

          k = 0.1667 0.2500 0.2500 (   908 PWs)   bands (ev):

  -114.8660 -69.0517 -69.0515 -69.0493  -6.6194   3.8168   3.9323   4.1158
     4.2350   4.2830   5.9258   7.9432   8.8650  13.5053  19.4314  19.6488
    22.6989

     occupation numbers 
     1.0000   1.0000   1.0000   1.0000   1.0000   1.0000   1.0000   1.0000
     1.0000   1.0000   1.0000   1.0000   1.0000   0.0000   0.0000   0.0000
     0.0000

          k = 0.1667 0.2500 0.3333 (   910 PWs)   bands (ev):

  -114.8658 -69.0538 -69.0515 -69.0491  -6.4433   3.7734   3.9273   4.0596
     4.2709   4.3021   5.8456   7.7180   9.0863  13.7526  18.1958  19.4433
    23.2636

     occupation numbers 
     1.0000   1.0000   1.0000   1.0000   1.0000   1.0000   1.0000   1.0000
     1.0000   1.0000   1.0000   1.0000   1.0000   0.0000   0.0000   0.0000
     0.0000

          k = 0.1667 0.2500 0.4167 (   913 PWs)   bands (ev):

  -114.8657 -69.0555 -69.0514 -69.0489  -6.3072   3.7138   3.8615   4.0381
     4.2816   4.3155   5.8141   7.6699   9.2788  13.9108  17.2580  19.2512
    23.9615

     occupation numbers 
     1.0000   1.0000   1.0000   1.0000   1.0000   1.0000   1.0000   1.0000
     1.0000   1.0000   1.0000   1.0000   1.0004   0.0000   0.0000   0.0000
     0.0000

          k = 0.1667 0.2500-0.5000 (   914 PWs)   bands (ev):

  -114.8657 -69.0562 -69.0514 -69.0489  -6.2556   3.6820   3.8292   4.0357
     4.2676   4.3292   5.8146   7.6761   9.3537  13.9686  16.9135  19.1654
    24.3097

     occupation numbers 
     1.0000   1.0000   1.0000   1.0000   1.0000   1.0000   1.0000   1.0000
     1.0000   1.0000   1.0000   1.0000   1.0021   0.0000   0.0000   0.0000
     0.0000

          k = 0.1667 0.3333 0.3333 (   908 PWs)   bands (ev):

  -114.8657 -69.0537 -69.0537 -69.0488  -6.2860   3.7538   3.9640   4.0606
     4.2968   4.3365   5.9768   7.3193   9.2013  13.6576  17.9880  18.7473
    23.5930

     occupation numbers 
     1.0000   1.0000   1.0000   1.0000   1.0000   1.0000   1.0000   1.0000
     1.0000   1.0000   1.0000   1.0000   1.0000   0.0000   0.0000   0.0000
     0.0000

          k = 0.1667 0.3333 0.4167 (   910 PWs)   bands (ev):

  -114.8656 -69.0553 -69.0536 -69.0487  -6.1650   3.7585   3.9029   4.0715
     4.2547   4.4097   6.0881   7.1476   9.3238  13.4342  17.5971  18.5196
    24.1606

     occupation numbers 
     1.0000   1.0000   1.0000   1.0000   1.0000   1.0000   1.0000   1.0000
     1.0000   1.0000   1.0000   1.0000   1.0011   0.0000   0.0000   0.0000
     0.0000

          k = 0.1667 0.3333-0.5000 (   922 PWs)   bands (ev):

  -114.8656 -69.0560 -69.0537 -69.0488  -6.1195   3.8100   3.8172   4.0856
     4.2253   4.4338   6.1281   7.1230   9.3748  13.3107  17.4631  18.4417
    24.5166

     occupation numbers 
     1.0000   1.0000   1.0000   1.0000   1.0000   1.0000   1.0000   1.0000
     1.0000   1.0000   1.0000   1.0000   1.0032   0.0000   0.0000   0.0000
     0.0000

          k = 0.1667 0.4167 0.4167 (   917 PWs)   bands (ev):

  -114.8655 -69.0553 -69.0552 -69.0486  -6.0563   3.7924   3.9209   4.0574
     4.1784   4.5335   6.3677   6.8297   9.3861  12.8912  17.7851  18.1822
    24.5041

     occupation numbers 
     1.0000   1.0000   1.0000   1.0000   1.0000   1.0000   1.0000   1.0000
     1.0000   1.0000   1.0000   1.0000   1.0040   0.0000   0.0000   0.0000
     0.0000

          k = 0.1667 0.4167-0.5000 (   914 PWs)   bands (ev):

  -114.8655 -69.0558 -69.0552 -69.0486  -6.0154   3.8458   3.8807   4.0713
     4.1222   4.5786   6.4704   6.7561   9.4135  12.6456  17.8485  18.0881
    24.7553

     occupation numbers 
     1.0000   1.0000   1.0000   1.0000   1.0000   1.0000   1.0000   1.0000
     1.0000   1.0000   1.0000   1.0000   1.0068   0.0000   0.0000   0.0000
     0.0000

          k = 0.1667-0.5000-0.5000 (   920 PWs)   bands (ev):

  -114.8655 -69.0558 -69.0558 -69.0487  -5.9764   3.8990   3.8990   4.0376
     4.0622   4.6345   6.6323   6.6323   9.4304  12.3556  17.9890  17.9890
    24.8661

     occupation numbers 
     1.0000   1.0000   1.0000   1.0000   1.0000   1.0000   1.0000   1.0000
     1.0000   1.0000   1.0000   1.0000   1.0091   0.0000   0.0000   0.0000
     0.0000

          k = 0.2500 0.2500 0.2500 (   901 PWs)   bands (ev):

  -114.8658 -69.0514 -69.0514 -69.0513  -6.4632   3.8782   3.8782   4.1704
     4.1704   4.3129   5.9079   8.3067   8.3067  13.6783  19.2191  19.2191
    21.9979

     occupation numbers 
     1.0000   1.0000   1.0000   1.0000   1.0000   1.0000   1.0000   1.0000
     1.0000   1.0000   1.0000   1.0000   1.0000   0.0000   0.0000   0.0000
     0.0000

          k = 0.2500 0.2500 0.3333 (   914 PWs)   bands (ev):

  -114.8657 -69.0537 -69.0514 -69.0513  -6.2983   3.7998   3.8367   4.1438
     4.2651   4.3028   5.9685   7.8991   8.6818  13.7974  18.2617  18.7309
    22.4695

     occupation numbers 
     1.0000   1.0000   1.0000   1.0000   1.0000   1.0000   1.0000   1.0000
     1.0000   1.0000   1.0000   1.0000   1.0000   0.0000   0.0000   0.0000
     0.0000

          k = 0.2500 0.2500 0.4167 (   916 PWs)   bands (ev):

  -114.8656 -69.0554 -69.0512 -69.0512  -6.1711   3.7357   3.7655   4.1380
     4.2475   4.3341   6.0942   7.6756   8.9696  13.8720  17.4127  18.3362
    23.2340

     occupation numbers 
     1.0000   1.0000   1.0000   1.0000   1.0000   1.0000   1.0000   1.0000
     1.0000   1.0000   1.0000   1.0000   1.0000   0.0000   0.0000   0.0000
     0.0000

          k = 0.2500 0.2500-0.5000 (   920 PWs)   bands (ev):

  -114.8656 -69.0560 -69.0512 -69.0512  -6.1231   3.7118   3.7303   4.1375
     4.2201   4.3561   6.1604   7.6067   9.0788  13.8999  17.0905  18.1836
    23.6219

     occupation numbers 
     1.0000   1.0000   1.0000   1.0000   1.0000   1.0000   1.0000   1.0000
     1.0000   1.0000   1.0000   1.0000   1.0000   0.0000   0.0000   0.0000
     0.0000

          k = 0.2500 0.3333 0.3333 (   918 PWs)   bands (ev):

  -114.8656 -69.0536 -69.0536 -69.0512  -6.1455   3.7122   3.7920   4.1937
     4.2374   4.3507   6.1924   7.7796   8.7034  13.7610  17.8339  18.0866
    22.4544

     occupation numbers 
     1.0000   1.0000   1.0000   1.0000   1.0000   1.0000   1.0000   1.0000
     1.0000   1.0000   1.0000   1.0000   1.0000   0.0000   0.0000   0.0000
     0.0000

          k = 0.2500 0.3333 0.4167 (   920 PWs)   bands (ev):

  -114.8655 -69.0552 -69.0535 -69.0511  -6.0282   3.6552   3.7372   4.1305
     4.2156   4.4386   6.4661   7.5474   8.9147  13.6535  17.3154  17.6652
    22.8287

     occupation numbers 
     1.0000   1.0000   1.0000   1.0000   1.0000   1.0000   1.0000   1.0000
     1.0000   1.0000   1.0000   1.0000   1.0000   0.0000   0.0000   0.0000
     0.0000

          k = 0.2500 0.3333-0.5000 (   926 PWs)   bands (ev):

  -114.8655 -69.0558 -69.0535 -69.0511  -5.9840   3.6410   3.7074   4.0871
     4.2183   4.4697   6.6068   7.4395   9.0111  13.5873  17.1575  17.4682
    23.0536

     occupation numbers 
     1.0000   1.0000   1.0000   1.0000   1.0000   1.0000   1.0000   1.0000
     1.0000   1.0000   1.0000   1.0000   1.0000   0.0000   0.0000   0.0000
     0.0000

          k = 0.2500 0.4167 0.4167 (   919 PWs)   bands (ev):

  -114.8654 -69.0551 -69.0550 -69.0510  -5.9187   3.6255   3.6982   3.9878
     4.2402   4.5496   6.8430   7.3834   9.0022  13.2966  17.1126  17.3728
    22.6632

     occupation numbers 
     1.0000   1.0000   1.0000   1.0000   1.0000   1.0000   1.0000   1.0000
     1.0000   1.0000   1.0000   1.0000   1.0000   0.0000   0.0000   0.0000
     0.0000

          k = 0.2500 0.4167-0.5000 (   914 PWs)   bands (ev):

  -114.8654 -69.0556 -69.0549 -69.0509  -5.8774   3.6328   3.6745   3.9183
     4.2469   4.5912   7.0387   7.2873   9.0548  13.1093  17.1453  17.1806
    22.6273

     occupation numbers 
     1.0000   1.0000   1.0000   1.0000   1.0000   1.0000   1.0000   1.0000
     1.0000   1.0000   1.0000   1.0000   1.0000   0.0000   0.0000   0.0000
     0.0000

          k = 0.2500-0.5000-0.5000 (   920 PWs)   bands (ev):

  -114.8653 -69.0556 -69.0556 -69.0509  -5.8374   3.6609   3.6609   3.8191
     4.2546   4.6377   7.2309   7.2309   9.0844  12.8681  17.1287  17.1287
    22.4613

     occupation numbers 
     1.0000   1.0000   1.0000   1.0000   1.0000   1.0000   1.0000   1.0000
     1.0000   1.0000   1.0000   1.0000   1.0000   0.0000   0.0000   0.0000
     0.0000

          k = 0.3333 0.3333 0.3333 (   931 PWs)   bands (ev):

  -114.8655 -69.0536 -69.0535 -69.0535  -5.9977   3.6469   3.6469   4.0904
     4.3618   4.3618   6.5347   8.2585   8.2585  13.8246  17.3761  17.3761
    21.9009

     occupation numbers 
     1.0000   1.0000   1.0000   1.0000   1.0000   1.0000   1.0000   1.0000
     1.0000   1.0000   1.0000   1.0000   1.0000   0.0000   0.0000   0.0000
     0.0000

          k = 0.3333 0.3333 0.4167 (   923 PWs)   bands (ev):

  -114.8654 -69.0550 -69.0534 -69.0533  -5.8842   3.5522   3.6004   3.9435
     4.3693   4.4773   6.9258   7.9050   8.6348  13.8187  16.8186  16.9169
    21.7326

     occupation numbers 
     1.0000   1.0000   1.0000   1.0000   1.0000   1.0000   1.0000   1.0000
     1.0000   1.0000   1.0000   1.0000   1.0000   0.0000   0.0000   0.0000
     0.0000

          k = 0.3333 0.3333-0.5000 (   914 PWs)   bands (ev):

  -114.8653 -69.0556 -69.0533 -69.0531  -5.8414   3.5195   3.5844   3.8815
     4.3720   4.5180   7.1549   7.7142   8.7807  13.7970  16.6048  16.7398
    21.7041

     occupation numbers 
     1.0000   1.0000   1.0000   1.0000   1.0000   1.0000   1.0000   1.0000
     1.0000   1.0000   1.0000   1.0000   1.0000   0.0000   0.0000   0.0000
     0.0000

          k = 0.3333 0.4167 0.4167 (   918 PWs)   bands (ev):

  -114.8653 -69.0549 -69.0549 -69.0532  -5.7737   3.4880   3.5214   3.7619
     4.4272   4.5593   7.3730   7.9563   8.6653  13.8044  16.3590  16.5186
    20.9581

     occupation numbers 
     1.0000   1.0000   1.0000   1.0000   1.0000   1.0000   1.0000   1.0000
     1.0000   1.0000   1.0000   1.0000   1.0000   0.0000   0.0000   0.0000
     0.0000

          k = 0.3333 0.4167-0.5000 (   918 PWs)   bands (ev):

  -114.8652 -69.0555 -69.0549 -69.0531  -5.7320   3.4670   3.5022   3.6810
     4.4364   4.6003   7.6391   7.8306   8.7551  13.7368  16.2390  16.3718
    20.6654

     occupation numbers 
     1.0000   1.0000   1.0000   1.0000   1.0000   1.0000   1.0000   1.0000
     1.0000   1.0000   1.0000   1.0000   1.0000   0.0000   0.0000   0.0000
     0.0000

          k = 0.3333-0.5000-0.5000 (   920 PWs)   bands (ev):

  -114.8652 -69.0555 -69.0555 -69.0530  -5.6908   3.4737   3.4737   3.5789
     4.4488   4.6408   7.8444   7.8444   8.7875  13.6168  16.2244  16.2244
    20.2497

     occupation numbers 
     1.0000   1.0000   1.0000   1.0000   1.0000   1.0000   1.0000   1.0000
     1.0000   1.0000   1.0000   1.0000   1.0000   0.0000   0.0000   0.0000
     0.0000

          k = 0.4167 0.4167 0.4167 (   916 PWs)   bands (ev):

  -114.8652 -69.0548 -69.0548 -69.0547  -5.6622   3.4100   3.4100   3.5670
     4.5649   4.5649   7.8492   8.4137   8.4137  14.2371  15.8491  15.8491
    19.6378

     occupation numbers 
     1.0000   1.0000   1.0000   1.0000   1.0000   1.0000   1.0000   1.0000
     1.0000   1.0000   1.0000   1.0000   1.0000   0.0000   0.0000   0.0000
     0.0000

          k = 0.4167 0.4167-0.5000 (   926 PWs)   bands (ev):

  -114.8652 -69.0554 -69.0549 -69.0548  -5.6203   3.3721   3.3935   3.4818
     4.5667   4.6151   8.1348   8.2329   8.5946  14.3653  15.5903  15.7541
    19.0902

     occupation numbers 
     1.0000   1.0000   1.0000   1.0000   1.0000   1.0000   1.0000   1.0000
     1.0000   1.0000   1.0000   1.0000   1.0000   0.0000   0.0000   0.0000
     0.0000

          k = 0.4167-0.5000-0.5000 (   920 PWs)   bands (ev):

  -114.8651 -69.0553 -69.0553 -69.0548  -5.5781   3.3566   3.3566   3.3892
     4.5916   4.6432   8.3364   8.3364   8.5970  14.5654  15.5139  15.5139
    18.3831

     occupation numbers 
     1.0000   1.0000   1.0000   1.0000   1.0000   1.0000   1.0000   1.0000
     1.0000   1.0000   1.0000   1.0000   1.0000   0.0000   0.0000   0.0000
     0.0000

          k =-0.5000-0.5000-0.5000 (   912 PWs)   bands (ev):

  -114.8651 -69.0552 -69.0552 -69.0552  -5.5355   3.3169   3.3169   3.3169
     4.6441   4.6441   8.5324   8.5324   8.5324  15.2377  15.2377  15.2377
    17.3983

     occupation numbers 
     1.0000   1.0000   1.0000   1.0000   1.0000   1.0000   1.0000   1.0000
     1.0000   1.0000   1.0000   1.0000   1.0000   0.0000   0.0000   0.0000
     0.0000

     the Fermi energy is     9.9382 ev

!    total energy              =    -503.16520093 Ry
     estimated scf accuracy    <          6.5E-10 Ry
     smearing contrib. (-TS)   =       0.00118223 Ry
     internal energy E=F+TS    =    -503.16638316 Ry

     The total energy is F=E-TS. E is the sum of the following terms:
     one-electron contribution =    -375.46536018 Ry
     hartree contribution      =     199.02117053 Ry
     xc contribution           =     -49.54571688 Ry
     ewald contribution        =    -267.64070811 Ry
     one-center paw contrib.   =      -9.53576853 Ry
      -> PAW hartree energy AE =      24.80945070 Ry
      -> PAW hartree energy PS =     -24.70076836 Ry
      -> PAW xc energy AE      =     -16.46801848 Ry
      -> PAW xc energy PS      =       6.82356762 Ry
      -> total E_H with PAW    =     199.12985287 Ry
      -> total E_XC with PAW   =     -59.19016774 Ry

     convergence has been achieved in  10 iterations

     Forces acting on atoms (cartesian axes, Ry/au):

     atom    1 type  2   force =     0.00000000    0.00000000    0.00000000
     atom    2 type  1   force =     0.00000000    0.00000000    0.00000000
     The non-local contrib.  to forces
     atom    1 type  2   force =     0.00000000    0.00000000    0.00000000
     atom    2 type  1   force =     0.00000000    0.00000000    0.00000000
     The ionic contribution  to forces
     atom    1 type  2   force =    -0.00000000   -0.00000000   -0.00000000
     atom    2 type  1   force =     0.00000000    0.00000000    0.00000000
     The local contribution  to forces
     atom    1 type  2   force =     0.00000000    0.00000000    0.00000000
     atom    2 type  1   force =     0.00000000    0.00000000    0.00000000
     The core correction contribution to forces
     atom    1 type  2   force =     0.00000000    0.00000000    0.00000000
     atom    2 type  1   force =     0.00000000    0.00000000   -0.00000000
     The Hubbard contrib.    to forces
     atom    1 type  2   force =     0.00000000    0.00000000    0.00000000
     atom    2 type  1   force =     0.00000000    0.00000000    0.00000000
     The SCF correction term to forces
     atom    1 type  2   force =     0.00000000   -0.00000000   -0.00000000
     atom    2 type  1   force =     0.00000000   -0.00000000    0.00000000

     Total force =     0.000000     Total SCF correction =     0.000000


     Computing stress (Cartesian axis) and pressure

          total   stress  (Ry/bohr**3)                   (kbar)     P=     -172.70
  -0.00117401   0.00000000   0.00000000         -172.70        0.00        0.00
   0.00000000  -0.00117401   0.00000000            0.00     -172.70        0.00
   0.00000000   0.00000000  -0.00117401            0.00        0.00     -172.70

     kinetic stress (kbar)  36451.03      0.00      0.00
                                0.00  36451.03      0.00
                                0.00      0.00  36451.03

     local   stress (kbar)   1568.20     -0.00     -0.00
                               -0.00   1568.20     -0.00
                               -0.00     -0.00   1568.20

     nonloc. stress (kbar)   -845.00      0.00      0.00
                                0.00   -845.00      0.00
                                0.00      0.00   -845.00

     hartree stress (kbar)  64045.07      0.00     -0.00
                                0.00  64045.07      0.00
                               -0.00      0.00  64045.07

     exc-cor stress (kbar) -14855.59      0.00      0.00
                                0.00 -14855.59      0.00
                                0.00      0.00 -14855.59

     corecor stress (kbar)   -409.57      0.00      0.00
                                0.00   -409.57     -0.00
                                0.00     -0.00   -409.57

     ewald   stress (kbar) -86126.86     -0.00     -0.00
                               -0.00 -86126.86     -0.00
                               -0.00     -0.00 -86126.86

     hubbard stress (kbar)      0.00      0.00      0.00
                                0.00      0.00      0.00
                                0.00      0.00      0.00

     DFT-D   stress (kbar)      0.00      0.00      0.00
                                0.00      0.00      0.00
                                0.00      0.00      0.00

     XDM     stress (kbar)      0.00      0.00      0.00
                                0.00      0.00      0.00
                                0.00      0.00      0.00

     dft-nl  stress (kbar)      0.00      0.00      0.00
                                0.00      0.00      0.00
                                0.00      0.00      0.00

     TS-vdW  stress (kbar)      0.00      0.00      0.00
                                0.00      0.00      0.00
                                0.00      0.00      0.00

     MDB     stress (kbar)      0.00      0.00      0.00
                                0.00      0.00      0.00
                                0.00      0.00      0.00

     3D-RISM stress (kbar)      0.00      0.00      0.00
                                0.00      0.00      0.00
                                0.00      0.00      0.00


     Writing all to output data dir ./temp_cubic/aiida.save/ :
     XML data file, charge density, pseudopotentials, collected wavefunctions

     init_run     :    119.83s CPU      5.27s WALL (       1 calls)
     electrons    :   4307.29s CPU    181.76s WALL (       1 calls)
     forces       :     45.16s CPU      1.93s WALL (       1 calls)
     stress       :    348.38s CPU     14.87s WALL (       1 calls)

     Called by init_run:
     wfcinit      :    115.05s CPU      4.82s WALL (       1 calls)
     wfcinit:atom :      2.37s CPU      0.10s WALL (      84 calls)
     wfcinit:wfcr :    108.72s CPU      4.61s WALL (      84 calls)
     potinit      :      1.62s CPU      0.09s WALL (       1 calls)
     hinit0       :      2.01s CPU      0.27s WALL (       1 calls)

     Called by electrons:
     c_bands      :   3565.11s CPU    150.02s WALL (      10 calls)
     sum_band     :    721.68s CPU     30.63s WALL (      10 calls)
     v_of_rho     :      3.41s CPU      0.16s WALL (      11 calls)
     v_h          :      1.06s CPU      0.04s WALL (      11 calls)
     v_xc         :      2.83s CPU      0.14s WALL (      13 calls)
     newd         :      7.44s CPU      0.56s WALL (      11 calls)
     PAW_pot      :      9.08s CPU      0.40s WALL (      11 calls)
     mix_rho      :      0.74s CPU      0.04s WALL (      10 calls)

     Called by c_bands:
     init_us_2    :     43.35s CPU      1.98s WALL (    1932 calls)
     cegterg      :   3466.57s CPU    145.84s WALL (     840 calls)

     Called by sum_band:
     sum_band:wei :      0.50s CPU      0.02s WALL (      10 calls)
     sum_band:loo :    716.31s CPU     30.03s WALL (      10 calls)
     sum_band:buf :      1.58s CPU      0.04s WALL (     840 calls)
     sum_band:ini :     20.48s CPU      0.83s WALL (     840 calls)
     sum_band:cal :     11.87s CPU      0.58s WALL (     840 calls)
     sum_band:bec :     30.44s CPU      1.38s WALL (     840 calls)
     addusdens    :      3.93s CPU      0.52s WALL (      10 calls)
                                        0.00s GPU  (      10 calls)
     addusd:skk   :      0.00s CPU      0.00s WALL (      20 calls)
                                        0.00s GPU  (      20 calls)

     Called by *egterg:
     cdiaghg      :     15.97s CPU      0.78s WALL (    2623 calls)
     cegterg:over :     46.71s CPU      1.94s WALL (    1783 calls)
     cegterg:upda :     58.90s CPU      2.65s WALL (    1783 calls)
     cegterg:last :     86.66s CPU      2.81s WALL (    1642 calls)
     h_psi        :   3148.68s CPU    133.13s WALL (    2707 calls)
     s_psi        :     34.29s CPU      1.53s WALL (    2707 calls)
     g_psi        :     51.08s CPU      2.17s WALL (    1783 calls)

     Called by h_psi:
     h_psi:calbec :     37.05s CPU      1.44s WALL (    2707 calls)
     vloc_psi     :   2999.98s CPU    126.80s WALL (    2707 calls)
     add_vuspsi   :     34.01s CPU      1.53s WALL (    2707 calls)

     General routines
     calbec       :     55.48s CPU      2.31s WALL (    3967 calls)
     fft          :      1.07s CPU      0.10s WALL (     166 calls)
     ffts         :      0.68s CPU      0.01s WALL (      21 calls)
     fftw         :    304.12s CPU     13.62s WALL (   83546 calls)
     interpolate  :      0.23s CPU      0.01s WALL (      11 calls)

     Parallel routines

     PAW routines
     PAW_pot      :      9.08s CPU      0.40s WALL (      11 calls)
     PAW_symme    :      0.00s CPU      0.00s WALL (      21 calls)

     PWSCF        :      1h20m CPU   3m27.20s WALL


   This run was terminated on:  21:42:54   7Jun2024            

=------------------------------------------------------------------------------=
   JOB DONE.
=------------------------------------------------------------------------------=
