
     Program PWSCF v.7.3.1 starts on  7Jun2024 at 23:10:12 

     This program is part of the open-source Quantum ESPRESSO suite
     for quantum simulation of materials; please cite
         "P. Giannozzi et al., J. Phys.:Condens. Matter 21 395502 (2009);
         "P. Giannozzi et al., J. Phys.:Condens. Matter 29 465901 (2017);
         "P. Giannozzi et al., J. Chem. Phys. 152 154105 (2020);
          URL http://www.quantum-espresso.org", 
     in publications or presentations arising from this work. More details at
     http://www.quantum-espresso.org/quote

     Parallel version (MPI & OpenMP), running on      24 processor cores
     Number of MPI processes:                 1
     Threads/MPI process:                    24

     MPI processes distributed on     1 nodes
     4495 MiB available memory on the printing compute node when the environment starts

     Waiting for input...
     Reading input from standard input

     Current dimensions of program PWSCF are:
     Max number of different atomic species (ntypx) = 10
     Max number of k-points (npk) =  40000
     Max angular momentum in pseudopotentials (lmaxx) =  4
     file O.pbe-n-kjpaw_psl.0.1.UPF: wavefunction(s)  2P renormalized
     Message from routine setup:
     using ibrav=0 with symmetry is DISCOURAGED, use correct ibrav instead

     Subspace diagonalization in iterative solution of the eigenvalue problem:
     a serial algorithm will be used


     G-vector sticks info
     --------------------
     sticks:   dense  smooth     PW     G-vecs:    dense   smooth      PW
     Sum         997     497    161                23703     8385    1551

     Using Slab Decomposition



     bravais-lattice index     =            0
     lattice parameter (alat)  =       5.5956  a.u.
     unit-cell volume          =     175.1984 (a.u.)^3
     number of atoms/cell      =            2
     number of atomic types    =            2
     number of electrons       =        26.00
     number of Kohn-Sham states=           17
     kinetic-energy cutoff     =      50.0000  Ry
     charge density cutoff     =     400.0000  Ry
     scf convergence threshold =      1.0E-08
     mixing beta               =       0.4000
     number of iterations used =            8  plain     mixing
     Exchange-correlation= SLA  PW   PBE  PBE
                           (   1   4   3   4   0   0   0)

     celldm(1)=   5.595558  celldm(2)=   0.000000  celldm(3)=   0.000000
     celldm(4)=   0.000000  celldm(5)=   0.000000  celldm(6)=   0.000000

     crystal axes: (cart. coord. in units of alat)
               a(1) = (   1.000000   0.000000   0.000000 )  
               a(2) = (   0.000000   1.000000   0.000000 )  
               a(3) = (   0.000000   0.000000   1.000000 )  

     reciprocal axes: (cart. coord. in units 2 pi/alat)
               b(1) = (  1.000000  0.000000  0.000000 )  
               b(2) = (  0.000000  1.000000  0.000000 )  
               b(3) = (  0.000000  0.000000  1.000000 )  


     PseudoPot. # 1 for O  read from file:
     ../SSSP_1.3.0_PBE_efficiency/O.pbe-n-kjpaw_psl.0.1.UPF
     MD5 check sum: 0234752ac141de4415c5fc33072bef88
     Pseudo is Projector augmented-wave + core cor, Zval =  6.0
     Generated using "atomic" code by A. Dal Corso  v.5.0.99 svn rev. 10869
     Shape of augmentation charge: BESSEL
     Using radial grid of 1095 points,  4 beta functions with: 
                l(1) =   0
                l(2) =   0
                l(3) =   1
                l(4) =   1
     Q(r) pseudized with 0 coefficients 


     PseudoPot. # 2 for Zn read from file:
     ../SSSP_1.3.0_PBE_efficiency/Zn_pbe_v1.uspp.F.UPF
     MD5 check sum: df62231357ef9e81f77b2b3087fa5675
     Pseudo is Ultrasoft, Zval = 20.0
     Generated by new atomic code, or converted to UPF format
     Using radial grid of  943 points,  6 beta functions with: 
                l(1) =   0
                l(2) =   0
                l(3) =   1
                l(4) =   1
                l(5) =   2
                l(6) =   2
     Q(r) pseudized with  8 coefficients,  rinner =    1.100   1.100   1.100
                                                       1.100   1.100

     atomic species   valence    mass     pseudopotential
     O                 6.00    15.99940     O ( 1.00)
     Zn               20.00    65.38000     Zn( 1.00)

     48 Sym. Ops., with inversion, found


                                    s                        frac. trans.

      isym =  1     identity                                     

 cryst.   s( 1) = (     1          0          0      )
                  (     0          1          0      )
                  (     0          0          1      )

 cart.    s( 1) = (  1.0000000  0.0000000  0.0000000 )
                  (  0.0000000  1.0000000  0.0000000 )
                  (  0.0000000  0.0000000  1.0000000 )


      isym =  2     180 deg rotation - cart. axis [0,0,1]        

 cryst.   s( 2) = (    -1          0          0      )
                  (     0         -1          0      )
                  (     0          0          1      )

 cart.    s( 2) = ( -1.0000000  0.0000000  0.0000000 )
                  (  0.0000000 -1.0000000  0.0000000 )
                  (  0.0000000  0.0000000  1.0000000 )


      isym =  3     180 deg rotation - cart. axis [0,1,0]        

 cryst.   s( 3) = (    -1          0          0      )
                  (     0          1          0      )
                  (     0          0         -1      )

 cart.    s( 3) = ( -1.0000000  0.0000000  0.0000000 )
                  (  0.0000000  1.0000000  0.0000000 )
                  (  0.0000000  0.0000000 -1.0000000 )


      isym =  4     180 deg rotation - cart. axis [1,0,0]        

 cryst.   s( 4) = (     1          0          0      )
                  (     0         -1          0      )
                  (     0          0         -1      )

 cart.    s( 4) = (  1.0000000  0.0000000  0.0000000 )
                  (  0.0000000 -1.0000000  0.0000000 )
                  (  0.0000000  0.0000000 -1.0000000 )


      isym =  5     180 deg rotation - cart. axis [1,1,0]        

 cryst.   s( 5) = (     0          1          0      )
                  (     1          0          0      )
                  (     0          0         -1      )

 cart.    s( 5) = (  0.0000000  1.0000000  0.0000000 )
                  (  1.0000000  0.0000000  0.0000000 )
                  (  0.0000000  0.0000000 -1.0000000 )


      isym =  6     180 deg rotation - cart. axis [1,-1,0]       

 cryst.   s( 6) = (     0         -1          0      )
                  (    -1          0          0      )
                  (     0          0         -1      )

 cart.    s( 6) = (  0.0000000 -1.0000000  0.0000000 )
                  ( -1.0000000  0.0000000  0.0000000 )
                  (  0.0000000  0.0000000 -1.0000000 )


      isym =  7      90 deg rotation - cart. axis [0,0,-1]       

 cryst.   s( 7) = (     0         -1          0      )
                  (     1          0          0      )
                  (     0          0          1      )

 cart.    s( 7) = (  0.0000000  1.0000000  0.0000000 )
                  ( -1.0000000  0.0000000  0.0000000 )
                  (  0.0000000  0.0000000  1.0000000 )


      isym =  8      90 deg rotation - cart. axis [0,0,1]        

 cryst.   s( 8) = (     0          1          0      )
                  (    -1          0          0      )
                  (     0          0          1      )

 cart.    s( 8) = (  0.0000000 -1.0000000  0.0000000 )
                  (  1.0000000  0.0000000  0.0000000 )
                  (  0.0000000  0.0000000  1.0000000 )


      isym =  9     180 deg rotation - cart. axis [1,0,1]        

 cryst.   s( 9) = (     0          0          1      )
                  (     0         -1          0      )
                  (     1          0          0      )

 cart.    s( 9) = (  0.0000000  0.0000000  1.0000000 )
                  (  0.0000000 -1.0000000  0.0000000 )
                  (  1.0000000  0.0000000  0.0000000 )


      isym = 10     180 deg rotation - cart. axis [-1,0,1]       

 cryst.   s(10) = (     0          0         -1      )
                  (     0         -1          0      )
                  (    -1          0          0      )

 cart.    s(10) = (  0.0000000  0.0000000 -1.0000000 )
                  (  0.0000000 -1.0000000  0.0000000 )
                  ( -1.0000000  0.0000000  0.0000000 )


      isym = 11      90 deg rotation - cart. axis [0,1,0]        

 cryst.   s(11) = (     0          0         -1      )
                  (     0          1          0      )
                  (     1          0          0      )

 cart.    s(11) = (  0.0000000  0.0000000  1.0000000 )
                  (  0.0000000  1.0000000  0.0000000 )
                  ( -1.0000000  0.0000000  0.0000000 )


      isym = 12      90 deg rotation - cart. axis [0,-1,0]       

 cryst.   s(12) = (     0          0          1      )
                  (     0          1          0      )
                  (    -1          0          0      )

 cart.    s(12) = (  0.0000000  0.0000000 -1.0000000 )
                  (  0.0000000  1.0000000  0.0000000 )
                  (  1.0000000  0.0000000  0.0000000 )


      isym = 13     180 deg rotation - cart. axis [0,1,1]        

 cryst.   s(13) = (    -1          0          0      )
                  (     0          0          1      )
                  (     0          1          0      )

 cart.    s(13) = ( -1.0000000  0.0000000  0.0000000 )
                  (  0.0000000  0.0000000  1.0000000 )
                  (  0.0000000  1.0000000  0.0000000 )


      isym = 14     180 deg rotation - cart. axis [0,1,-1]       

 cryst.   s(14) = (    -1          0          0      )
                  (     0          0         -1      )
                  (     0         -1          0      )

 cart.    s(14) = ( -1.0000000  0.0000000  0.0000000 )
                  (  0.0000000  0.0000000 -1.0000000 )
                  (  0.0000000 -1.0000000  0.0000000 )


      isym = 15      90 deg rotation - cart. axis [-1,0,0]       

 cryst.   s(15) = (     1          0          0      )
                  (     0          0         -1      )
                  (     0          1          0      )

 cart.    s(15) = (  1.0000000  0.0000000  0.0000000 )
                  (  0.0000000  0.0000000  1.0000000 )
                  (  0.0000000 -1.0000000  0.0000000 )


      isym = 16      90 deg rotation - cart. axis [1,0,0]        

 cryst.   s(16) = (     1          0          0      )
                  (     0          0          1      )
                  (     0         -1          0      )

 cart.    s(16) = (  1.0000000  0.0000000  0.0000000 )
                  (  0.0000000  0.0000000 -1.0000000 )
                  (  0.0000000  1.0000000  0.0000000 )


      isym = 17     120 deg rotation - cart. axis [-1,-1,-1]     

 cryst.   s(17) = (     0          0          1      )
                  (     1          0          0      )
                  (     0          1          0      )

 cart.    s(17) = (  0.0000000  1.0000000  0.0000000 )
                  (  0.0000000  0.0000000  1.0000000 )
                  (  1.0000000  0.0000000  0.0000000 )


      isym = 18     120 deg rotation - cart. axis [-1,1,1]       

 cryst.   s(18) = (     0          0         -1      )
                  (    -1          0          0      )
                  (     0          1          0      )

 cart.    s(18) = (  0.0000000 -1.0000000  0.0000000 )
                  (  0.0000000  0.0000000  1.0000000 )
                  ( -1.0000000  0.0000000  0.0000000 )


      isym = 19     120 deg rotation - cart. axis [1,1,-1]       

 cryst.   s(19) = (     0          0         -1      )
                  (     1          0          0      )
                  (     0         -1          0      )

 cart.    s(19) = (  0.0000000  1.0000000  0.0000000 )
                  (  0.0000000  0.0000000 -1.0000000 )
                  ( -1.0000000  0.0000000  0.0000000 )


      isym = 20     120 deg rotation - cart. axis [1,-1,1]       

 cryst.   s(20) = (     0          0          1      )
                  (    -1          0          0      )
                  (     0         -1          0      )

 cart.    s(20) = (  0.0000000 -1.0000000  0.0000000 )
                  (  0.0000000  0.0000000 -1.0000000 )
                  (  1.0000000  0.0000000  0.0000000 )


      isym = 21     120 deg rotation - cart. axis [1,1,1]        

 cryst.   s(21) = (     0          1          0      )
                  (     0          0          1      )
                  (     1          0          0      )

 cart.    s(21) = (  0.0000000  0.0000000  1.0000000 )
                  (  1.0000000  0.0000000  0.0000000 )
                  (  0.0000000  1.0000000  0.0000000 )


      isym = 22     120 deg rotation - cart. axis [-1,1,-1]      

 cryst.   s(22) = (     0         -1          0      )
                  (     0          0         -1      )
                  (     1          0          0      )

 cart.    s(22) = (  0.0000000  0.0000000  1.0000000 )
                  ( -1.0000000  0.0000000  0.0000000 )
                  (  0.0000000 -1.0000000  0.0000000 )


      isym = 23     120 deg rotation - cart. axis [1,-1,-1]      

 cryst.   s(23) = (     0         -1          0      )
                  (     0          0          1      )
                  (    -1          0          0      )

 cart.    s(23) = (  0.0000000  0.0000000 -1.0000000 )
                  ( -1.0000000  0.0000000  0.0000000 )
                  (  0.0000000  1.0000000  0.0000000 )


      isym = 24     120 deg rotation - cart. axis [-1,-1,1]      

 cryst.   s(24) = (     0          1          0      )
                  (     0          0         -1      )
                  (    -1          0          0      )

 cart.    s(24) = (  0.0000000  0.0000000 -1.0000000 )
                  (  1.0000000  0.0000000  0.0000000 )
                  (  0.0000000 -1.0000000  0.0000000 )


      isym = 25     inversion                                    

 cryst.   s(25) = (    -1          0          0      )
                  (     0         -1          0      )
                  (     0          0         -1      )

 cart.    s(25) = ( -1.0000000  0.0000000  0.0000000 )
                  (  0.0000000 -1.0000000  0.0000000 )
                  (  0.0000000  0.0000000 -1.0000000 )


      isym = 26     inv. 180 deg rotation - cart. axis [0,0,1]   

 cryst.   s(26) = (     1          0          0      )
                  (     0          1          0      )
                  (     0          0         -1      )

 cart.    s(26) = (  1.0000000  0.0000000  0.0000000 )
                  (  0.0000000  1.0000000  0.0000000 )
                  (  0.0000000  0.0000000 -1.0000000 )


      isym = 27     inv. 180 deg rotation - cart. axis [0,1,0]   

 cryst.   s(27) = (     1          0          0      )
                  (     0         -1          0      )
                  (     0          0          1      )

 cart.    s(27) = (  1.0000000  0.0000000  0.0000000 )
                  (  0.0000000 -1.0000000  0.0000000 )
                  (  0.0000000  0.0000000  1.0000000 )


      isym = 28     inv. 180 deg rotation - cart. axis [1,0,0]   

 cryst.   s(28) = (    -1          0          0      )
                  (     0          1          0      )
                  (     0          0          1      )

 cart.    s(28) = ( -1.0000000  0.0000000  0.0000000 )
                  (  0.0000000  1.0000000  0.0000000 )
                  (  0.0000000  0.0000000  1.0000000 )


      isym = 29     inv. 180 deg rotation - cart. axis [1,1,0]   

 cryst.   s(29) = (     0         -1          0      )
                  (    -1          0          0      )
                  (     0          0          1      )

 cart.    s(29) = (  0.0000000 -1.0000000  0.0000000 )
                  ( -1.0000000  0.0000000  0.0000000 )
                  (  0.0000000  0.0000000  1.0000000 )


      isym = 30     inv. 180 deg rotation - cart. axis [1,-1,0]  

 cryst.   s(30) = (     0          1          0      )
                  (     1          0          0      )
                  (     0          0          1      )

 cart.    s(30) = (  0.0000000  1.0000000  0.0000000 )
                  (  1.0000000  0.0000000  0.0000000 )
                  (  0.0000000  0.0000000  1.0000000 )


      isym = 31     inv.  90 deg rotation - cart. axis [0,0,-1]  

 cryst.   s(31) = (     0          1          0      )
                  (    -1          0          0      )
                  (     0          0         -1      )

 cart.    s(31) = (  0.0000000 -1.0000000  0.0000000 )
                  (  1.0000000  0.0000000  0.0000000 )
                  (  0.0000000  0.0000000 -1.0000000 )


      isym = 32     inv.  90 deg rotation - cart. axis [0,0,1]   

 cryst.   s(32) = (     0         -1          0      )
                  (     1          0          0      )
                  (     0          0         -1      )

 cart.    s(32) = (  0.0000000  1.0000000  0.0000000 )
                  ( -1.0000000  0.0000000  0.0000000 )
                  (  0.0000000  0.0000000 -1.0000000 )


      isym = 33     inv. 180 deg rotation - cart. axis [1,0,1]   

 cryst.   s(33) = (     0          0         -1      )
                  (     0          1          0      )
                  (    -1          0          0      )

 cart.    s(33) = (  0.0000000  0.0000000 -1.0000000 )
                  (  0.0000000  1.0000000  0.0000000 )
                  ( -1.0000000  0.0000000  0.0000000 )


      isym = 34     inv. 180 deg rotation - cart. axis [-1,0,1]  

 cryst.   s(34) = (     0          0          1      )
                  (     0          1          0      )
                  (     1          0          0      )

 cart.    s(34) = (  0.0000000  0.0000000  1.0000000 )
                  (  0.0000000  1.0000000  0.0000000 )
                  (  1.0000000  0.0000000  0.0000000 )


      isym = 35     inv.  90 deg rotation - cart. axis [0,1,0]   

 cryst.   s(35) = (     0          0          1      )
                  (     0         -1          0      )
                  (    -1          0          0      )

 cart.    s(35) = (  0.0000000  0.0000000 -1.0000000 )
                  (  0.0000000 -1.0000000  0.0000000 )
                  (  1.0000000  0.0000000  0.0000000 )


      isym = 36     inv.  90 deg rotation - cart. axis [0,-1,0]  

 cryst.   s(36) = (     0          0         -1      )
                  (     0         -1          0      )
                  (     1          0          0      )

 cart.    s(36) = (  0.0000000  0.0000000  1.0000000 )
                  (  0.0000000 -1.0000000  0.0000000 )
                  ( -1.0000000  0.0000000  0.0000000 )


      isym = 37     inv. 180 deg rotation - cart. axis [0,1,1]   

 cryst.   s(37) = (     1          0          0      )
                  (     0          0         -1      )
                  (     0         -1          0      )

 cart.    s(37) = (  1.0000000  0.0000000  0.0000000 )
                  (  0.0000000  0.0000000 -1.0000000 )
                  (  0.0000000 -1.0000000  0.0000000 )


      isym = 38     inv. 180 deg rotation - cart. axis [0,1,-1]  

 cryst.   s(38) = (     1          0          0      )
                  (     0          0          1      )
                  (     0          1          0      )

 cart.    s(38) = (  1.0000000  0.0000000  0.0000000 )
                  (  0.0000000  0.0000000  1.0000000 )
                  (  0.0000000  1.0000000  0.0000000 )


      isym = 39     inv.  90 deg rotation - cart. axis [-1,0,0]  

 cryst.   s(39) = (    -1          0          0      )
                  (     0          0          1      )
                  (     0         -1          0      )

 cart.    s(39) = ( -1.0000000  0.0000000  0.0000000 )
                  (  0.0000000  0.0000000 -1.0000000 )
                  (  0.0000000  1.0000000  0.0000000 )


      isym = 40     inv.  90 deg rotation - cart. axis [1,0,0]   

 cryst.   s(40) = (    -1          0          0      )
                  (     0          0         -1      )
                  (     0          1          0      )

 cart.    s(40) = ( -1.0000000  0.0000000  0.0000000 )
                  (  0.0000000  0.0000000  1.0000000 )
                  (  0.0000000 -1.0000000  0.0000000 )


      isym = 41     inv. 120 deg rotation - cart. axis [-1,-1,-1]

 cryst.   s(41) = (     0          0         -1      )
                  (    -1          0          0      )
                  (     0         -1          0      )

 cart.    s(41) = (  0.0000000 -1.0000000  0.0000000 )
                  (  0.0000000  0.0000000 -1.0000000 )
                  ( -1.0000000  0.0000000  0.0000000 )


      isym = 42     inv. 120 deg rotation - cart. axis [-1,1,1]  

 cryst.   s(42) = (     0          0          1      )
                  (     1          0          0      )
                  (     0         -1          0      )

 cart.    s(42) = (  0.0000000  1.0000000  0.0000000 )
                  (  0.0000000  0.0000000 -1.0000000 )
                  (  1.0000000  0.0000000  0.0000000 )


      isym = 43     inv. 120 deg rotation - cart. axis [1,1,-1]  

 cryst.   s(43) = (     0          0          1      )
                  (    -1          0          0      )
                  (     0          1          0      )

 cart.    s(43) = (  0.0000000 -1.0000000  0.0000000 )
                  (  0.0000000  0.0000000  1.0000000 )
                  (  1.0000000  0.0000000  0.0000000 )


      isym = 44     inv. 120 deg rotation - cart. axis [1,-1,1]  

 cryst.   s(44) = (     0          0         -1      )
                  (     1          0          0      )
                  (     0          1          0      )

 cart.    s(44) = (  0.0000000  1.0000000  0.0000000 )
                  (  0.0000000  0.0000000  1.0000000 )
                  ( -1.0000000  0.0000000  0.0000000 )


      isym = 45     inv. 120 deg rotation - cart. axis [1,1,1]   

 cryst.   s(45) = (     0         -1          0      )
                  (     0          0         -1      )
                  (    -1          0          0      )

 cart.    s(45) = (  0.0000000  0.0000000 -1.0000000 )
                  ( -1.0000000  0.0000000  0.0000000 )
                  (  0.0000000 -1.0000000  0.0000000 )


      isym = 46     inv. 120 deg rotation - cart. axis [-1,1,-1] 

 cryst.   s(46) = (     0          1          0      )
                  (     0          0          1      )
                  (    -1          0          0      )

 cart.    s(46) = (  0.0000000  0.0000000 -1.0000000 )
                  (  1.0000000  0.0000000  0.0000000 )
                  (  0.0000000  1.0000000  0.0000000 )


      isym = 47     inv. 120 deg rotation - cart. axis [1,-1,-1] 

 cryst.   s(47) = (     0          1          0      )
                  (     0          0         -1      )
                  (     1          0          0      )

 cart.    s(47) = (  0.0000000  0.0000000  1.0000000 )
                  (  1.0000000  0.0000000  0.0000000 )
                  (  0.0000000 -1.0000000  0.0000000 )


      isym = 48     inv. 120 deg rotation - cart. axis [-1,-1,1] 

 cryst.   s(48) = (     0         -1          0      )
                  (     0          0          1      )
                  (     1          0          0      )

 cart.    s(48) = (  0.0000000  0.0000000  1.0000000 )
                  ( -1.0000000  0.0000000  0.0000000 )
                  (  0.0000000  1.0000000  0.0000000 )


   Cartesian axes

     site n.     atom                  positions (alat units)
         1        Zn     tau(   1) = (   0.0000000   0.0000000   0.0000000  )
         2        O      tau(   2) = (   0.5000000   0.5000000   0.5000000  )

   Crystallographic axes

     site n.     atom                  positions (cryst. coord.)
         1        Zn     tau(   1) = (  0.0000000  0.0000000  0.0000000  )
         2        O      tau(   2) = (  0.5000000  0.5000000  0.5000000  )

     number of k points=    84  Marzari-Vanderbilt smearing, width (Ry)=  0.0147
                       cart. coord. in units 2pi/alat
        k(    1) = (   0.0000000   0.0000000   0.0000000), wk =   0.0011574
        k(    2) = (   0.0000000   0.0000000   0.0833333), wk =   0.0069444
        k(    3) = (   0.0000000   0.0000000   0.1666667), wk =   0.0069444
        k(    4) = (   0.0000000   0.0000000   0.2500000), wk =   0.0069444
        k(    5) = (   0.0000000   0.0000000   0.3333333), wk =   0.0069444
        k(    6) = (   0.0000000   0.0000000   0.4166667), wk =   0.0069444
        k(    7) = (   0.0000000   0.0000000  -0.5000000), wk =   0.0034722
        k(    8) = (   0.0000000   0.0833333   0.0833333), wk =   0.0138889
        k(    9) = (   0.0000000   0.0833333   0.1666667), wk =   0.0277778
        k(   10) = (   0.0000000   0.0833333   0.2500000), wk =   0.0277778
        k(   11) = (   0.0000000   0.0833333   0.3333333), wk =   0.0277778
        k(   12) = (   0.0000000   0.0833333   0.4166667), wk =   0.0277778
        k(   13) = (   0.0000000   0.0833333  -0.5000000), wk =   0.0138889
        k(   14) = (   0.0000000   0.1666667   0.1666667), wk =   0.0138889
        k(   15) = (   0.0000000   0.1666667   0.2500000), wk =   0.0277778
        k(   16) = (   0.0000000   0.1666667   0.3333333), wk =   0.0277778
        k(   17) = (   0.0000000   0.1666667   0.4166667), wk =   0.0277778
        k(   18) = (   0.0000000   0.1666667  -0.5000000), wk =   0.0138889
        k(   19) = (   0.0000000   0.2500000   0.2500000), wk =   0.0138889
        k(   20) = (   0.0000000   0.2500000   0.3333333), wk =   0.0277778
        k(   21) = (   0.0000000   0.2500000   0.4166667), wk =   0.0277778
        k(   22) = (   0.0000000   0.2500000  -0.5000000), wk =   0.0138889
        k(   23) = (   0.0000000   0.3333333   0.3333333), wk =   0.0138889
        k(   24) = (   0.0000000   0.3333333   0.4166667), wk =   0.0277778
        k(   25) = (   0.0000000   0.3333333  -0.5000000), wk =   0.0138889
        k(   26) = (   0.0000000   0.4166667   0.4166667), wk =   0.0138889
        k(   27) = (   0.0000000   0.4166667  -0.5000000), wk =   0.0138889
        k(   28) = (   0.0000000  -0.5000000  -0.5000000), wk =   0.0034722
        k(   29) = (   0.0833333   0.0833333   0.0833333), wk =   0.0092593
        k(   30) = (   0.0833333   0.0833333   0.1666667), wk =   0.0277778
        k(   31) = (   0.0833333   0.0833333   0.2500000), wk =   0.0277778
        k(   32) = (   0.0833333   0.0833333   0.3333333), wk =   0.0277778
        k(   33) = (   0.0833333   0.0833333   0.4166667), wk =   0.0277778
        k(   34) = (   0.0833333   0.0833333  -0.5000000), wk =   0.0138889
        k(   35) = (   0.0833333   0.1666667   0.1666667), wk =   0.0277778
        k(   36) = (   0.0833333   0.1666667   0.2500000), wk =   0.0555556
        k(   37) = (   0.0833333   0.1666667   0.3333333), wk =   0.0555556
        k(   38) = (   0.0833333   0.1666667   0.4166667), wk =   0.0555556
        k(   39) = (   0.0833333   0.1666667  -0.5000000), wk =   0.0277778
        k(   40) = (   0.0833333   0.2500000   0.2500000), wk =   0.0277778
        k(   41) = (   0.0833333   0.2500000   0.3333333), wk =   0.0555556
        k(   42) = (   0.0833333   0.2500000   0.4166667), wk =   0.0555556
        k(   43) = (   0.0833333   0.2500000  -0.5000000), wk =   0.0277778
        k(   44) = (   0.0833333   0.3333333   0.3333333), wk =   0.0277778
        k(   45) = (   0.0833333   0.3333333   0.4166667), wk =   0.0555556
        k(   46) = (   0.0833333   0.3333333  -0.5000000), wk =   0.0277778
        k(   47) = (   0.0833333   0.4166667   0.4166667), wk =   0.0277778
        k(   48) = (   0.0833333   0.4166667  -0.5000000), wk =   0.0277778
        k(   49) = (   0.0833333  -0.5000000  -0.5000000), wk =   0.0069444
        k(   50) = (   0.1666667   0.1666667   0.1666667), wk =   0.0092593
        k(   51) = (   0.1666667   0.1666667   0.2500000), wk =   0.0277778
        k(   52) = (   0.1666667   0.1666667   0.3333333), wk =   0.0277778
        k(   53) = (   0.1666667   0.1666667   0.4166667), wk =   0.0277778
        k(   54) = (   0.1666667   0.1666667  -0.5000000), wk =   0.0138889
        k(   55) = (   0.1666667   0.2500000   0.2500000), wk =   0.0277778
        k(   56) = (   0.1666667   0.2500000   0.3333333), wk =   0.0555556
        k(   57) = (   0.1666667   0.2500000   0.4166667), wk =   0.0555556
        k(   58) = (   0.1666667   0.2500000  -0.5000000), wk =   0.0277778
        k(   59) = (   0.1666667   0.3333333   0.3333333), wk =   0.0277778
        k(   60) = (   0.1666667   0.3333333   0.4166667), wk =   0.0555556
        k(   61) = (   0.1666667   0.3333333  -0.5000000), wk =   0.0277778
        k(   62) = (   0.1666667   0.4166667   0.4166667), wk =   0.0277778
        k(   63) = (   0.1666667   0.4166667  -0.5000000), wk =   0.0277778
        k(   64) = (   0.1666667  -0.5000000  -0.5000000), wk =   0.0069444
        k(   65) = (   0.2500000   0.2500000   0.2500000), wk =   0.0092593
        k(   66) = (   0.2500000   0.2500000   0.3333333), wk =   0.0277778
        k(   67) = (   0.2500000   0.2500000   0.4166667), wk =   0.0277778
        k(   68) = (   0.2500000   0.2500000  -0.5000000), wk =   0.0138889
        k(   69) = (   0.2500000   0.3333333   0.3333333), wk =   0.0277778
        k(   70) = (   0.2500000   0.3333333   0.4166667), wk =   0.0555556
        k(   71) = (   0.2500000   0.3333333  -0.5000000), wk =   0.0277778
        k(   72) = (   0.2500000   0.4166667   0.4166667), wk =   0.0277778
        k(   73) = (   0.2500000   0.4166667  -0.5000000), wk =   0.0277778
        k(   74) = (   0.2500000  -0.5000000  -0.5000000), wk =   0.0069444
        k(   75) = (   0.3333333   0.3333333   0.3333333), wk =   0.0092593
        k(   76) = (   0.3333333   0.3333333   0.4166667), wk =   0.0277778
        k(   77) = (   0.3333333   0.3333333  -0.5000000), wk =   0.0138889
        k(   78) = (   0.3333333   0.4166667   0.4166667), wk =   0.0277778
        k(   79) = (   0.3333333   0.4166667  -0.5000000), wk =   0.0277778
        k(   80) = (   0.3333333  -0.5000000  -0.5000000), wk =   0.0069444
        k(   81) = (   0.4166667   0.4166667   0.4166667), wk =   0.0092593
        k(   82) = (   0.4166667   0.4166667  -0.5000000), wk =   0.0138889
        k(   83) = (   0.4166667  -0.5000000  -0.5000000), wk =   0.0069444
        k(   84) = (  -0.5000000  -0.5000000  -0.5000000), wk =   0.0011574

                       cryst. coord.
        k(    1) = (   0.0000000   0.0000000   0.0000000), wk =   0.0011574
        k(    2) = (   0.0000000   0.0000000   0.0833333), wk =   0.0069444
        k(    3) = (   0.0000000   0.0000000   0.1666667), wk =   0.0069444
        k(    4) = (   0.0000000   0.0000000   0.2500000), wk =   0.0069444
        k(    5) = (   0.0000000   0.0000000   0.3333333), wk =   0.0069444
        k(    6) = (   0.0000000   0.0000000   0.4166667), wk =   0.0069444
        k(    7) = (   0.0000000   0.0000000  -0.5000000), wk =   0.0034722
        k(    8) = (   0.0000000   0.0833333   0.0833333), wk =   0.0138889
        k(    9) = (   0.0000000   0.0833333   0.1666667), wk =   0.0277778
        k(   10) = (   0.0000000   0.0833333   0.2500000), wk =   0.0277778
        k(   11) = (   0.0000000   0.0833333   0.3333333), wk =   0.0277778
        k(   12) = (   0.0000000   0.0833333   0.4166667), wk =   0.0277778
        k(   13) = (   0.0000000   0.0833333  -0.5000000), wk =   0.0138889
        k(   14) = (   0.0000000   0.1666667   0.1666667), wk =   0.0138889
        k(   15) = (   0.0000000   0.1666667   0.2500000), wk =   0.0277778
        k(   16) = (   0.0000000   0.1666667   0.3333333), wk =   0.0277778
        k(   17) = (   0.0000000   0.1666667   0.4166667), wk =   0.0277778
        k(   18) = (   0.0000000   0.1666667  -0.5000000), wk =   0.0138889
        k(   19) = (   0.0000000   0.2500000   0.2500000), wk =   0.0138889
        k(   20) = (   0.0000000   0.2500000   0.3333333), wk =   0.0277778
        k(   21) = (   0.0000000   0.2500000   0.4166667), wk =   0.0277778
        k(   22) = (   0.0000000   0.2500000  -0.5000000), wk =   0.0138889
        k(   23) = (   0.0000000   0.3333333   0.3333333), wk =   0.0138889
        k(   24) = (   0.0000000   0.3333333   0.4166667), wk =   0.0277778
        k(   25) = (   0.0000000   0.3333333  -0.5000000), wk =   0.0138889
        k(   26) = (   0.0000000   0.4166667   0.4166667), wk =   0.0138889
        k(   27) = (   0.0000000   0.4166667  -0.5000000), wk =   0.0138889
        k(   28) = (   0.0000000  -0.5000000  -0.5000000), wk =   0.0034722
        k(   29) = (   0.0833333   0.0833333   0.0833333), wk =   0.0092593
        k(   30) = (   0.0833333   0.0833333   0.1666667), wk =   0.0277778
        k(   31) = (   0.0833333   0.0833333   0.2500000), wk =   0.0277778
        k(   32) = (   0.0833333   0.0833333   0.3333333), wk =   0.0277778
        k(   33) = (   0.0833333   0.0833333   0.4166667), wk =   0.0277778
        k(   34) = (   0.0833333   0.0833333  -0.5000000), wk =   0.0138889
        k(   35) = (   0.0833333   0.1666667   0.1666667), wk =   0.0277778
        k(   36) = (   0.0833333   0.1666667   0.2500000), wk =   0.0555556
        k(   37) = (   0.0833333   0.1666667   0.3333333), wk =   0.0555556
        k(   38) = (   0.0833333   0.1666667   0.4166667), wk =   0.0555556
        k(   39) = (   0.0833333   0.1666667  -0.5000000), wk =   0.0277778
        k(   40) = (   0.0833333   0.2500000   0.2500000), wk =   0.0277778
        k(   41) = (   0.0833333   0.2500000   0.3333333), wk =   0.0555556
        k(   42) = (   0.0833333   0.2500000   0.4166667), wk =   0.0555556
        k(   43) = (   0.0833333   0.2500000  -0.5000000), wk =   0.0277778
        k(   44) = (   0.0833333   0.3333333   0.3333333), wk =   0.0277778
        k(   45) = (   0.0833333   0.3333333   0.4166667), wk =   0.0555556
        k(   46) = (   0.0833333   0.3333333  -0.5000000), wk =   0.0277778
        k(   47) = (   0.0833333   0.4166667   0.4166667), wk =   0.0277778
        k(   48) = (   0.0833333   0.4166667  -0.5000000), wk =   0.0277778
        k(   49) = (   0.0833333  -0.5000000  -0.5000000), wk =   0.0069444
        k(   50) = (   0.1666667   0.1666667   0.1666667), wk =   0.0092593
        k(   51) = (   0.1666667   0.1666667   0.2500000), wk =   0.0277778
        k(   52) = (   0.1666667   0.1666667   0.3333333), wk =   0.0277778
        k(   53) = (   0.1666667   0.1666667   0.4166667), wk =   0.0277778
        k(   54) = (   0.1666667   0.1666667  -0.5000000), wk =   0.0138889
        k(   55) = (   0.1666667   0.2500000   0.2500000), wk =   0.0277778
        k(   56) = (   0.1666667   0.2500000   0.3333333), wk =   0.0555556
        k(   57) = (   0.1666667   0.2500000   0.4166667), wk =   0.0555556
        k(   58) = (   0.1666667   0.2500000  -0.5000000), wk =   0.0277778
        k(   59) = (   0.1666667   0.3333333   0.3333333), wk =   0.0277778
        k(   60) = (   0.1666667   0.3333333   0.4166667), wk =   0.0555556
        k(   61) = (   0.1666667   0.3333333  -0.5000000), wk =   0.0277778
        k(   62) = (   0.1666667   0.4166667   0.4166667), wk =   0.0277778
        k(   63) = (   0.1666667   0.4166667  -0.5000000), wk =   0.0277778
        k(   64) = (   0.1666667  -0.5000000  -0.5000000), wk =   0.0069444
        k(   65) = (   0.2500000   0.2500000   0.2500000), wk =   0.0092593
        k(   66) = (   0.2500000   0.2500000   0.3333333), wk =   0.0277778
        k(   67) = (   0.2500000   0.2500000   0.4166667), wk =   0.0277778
        k(   68) = (   0.2500000   0.2500000  -0.5000000), wk =   0.0138889
        k(   69) = (   0.2500000   0.3333333   0.3333333), wk =   0.0277778
        k(   70) = (   0.2500000   0.3333333   0.4166667), wk =   0.0555556
        k(   71) = (   0.2500000   0.3333333  -0.5000000), wk =   0.0277778
        k(   72) = (   0.2500000   0.4166667   0.4166667), wk =   0.0277778
        k(   73) = (   0.2500000   0.4166667  -0.5000000), wk =   0.0277778
        k(   74) = (   0.2500000  -0.5000000  -0.5000000), wk =   0.0069444
        k(   75) = (   0.3333333   0.3333333   0.3333333), wk =   0.0092593
        k(   76) = (   0.3333333   0.3333333   0.4166667), wk =   0.0277778
        k(   77) = (   0.3333333   0.3333333  -0.5000000), wk =   0.0138889
        k(   78) = (   0.3333333   0.4166667   0.4166667), wk =   0.0277778
        k(   79) = (   0.3333333   0.4166667  -0.5000000), wk =   0.0277778
        k(   80) = (   0.3333333  -0.5000000  -0.5000000), wk =   0.0069444
        k(   81) = (   0.4166667   0.4166667   0.4166667), wk =   0.0092593
        k(   82) = (   0.4166667   0.4166667  -0.5000000), wk =   0.0138889
        k(   83) = (   0.4166667  -0.5000000  -0.5000000), wk =   0.0069444
        k(   84) = (  -0.5000000  -0.5000000  -0.5000000), wk =   0.0011574

     Dense  grid:    23703 G-vectors     FFT dimensions: (  36,  36,  36)

     Smooth grid:     8385 G-vectors     FFT dimensions: (  25,  25,  25)

     Dynamical RAM for                 wfc:       0.27 MB

     Dynamical RAM for     wfc (w. buffer):      23.06 MB

     Dynamical RAM for           str. fact:       0.72 MB

     Dynamical RAM for           local pot:       0.00 MB

     Dynamical RAM for          nlocal pot:       0.41 MB

     Dynamical RAM for                qrad:       3.21 MB

     Dynamical RAM for          rho,v,vnew:       2.15 MB

     Dynamical RAM for               rhoin:       0.72 MB

     Dynamical RAM for            rho*nmix:       5.79 MB

     Dynamical RAM for           G-vectors:       1.42 MB

     Dynamical RAM for          h,s,v(r/c):       0.05 MB

     Dynamical RAM for          <psi|beta>:       0.01 MB

     Dynamical RAM for                 psi:       0.54 MB

     Dynamical RAM for                hpsi:       0.54 MB

     Dynamical RAM for                spsi:       0.54 MB

     Dynamical RAM for      wfcinit/wfcrot:       0.55 MB

     Dynamical RAM for           addusdens:      67.63 MB

     Dynamical RAM for          addusforce:      67.82 MB

     Dynamical RAM for         addusstress:      72.70 MB

     Estimated static dynamical RAM per process >      34.57 MB

     Estimated max dynamical RAM per process >     113.05 MB

     Check: negative core charge=   -0.000003

     Initial potential from superposition of free atoms

     starting charge      25.9999, renormalised to      26.0000
     Starting wfcs are   17 randomized atomic wfcs
     Checking if some PAW data can be deallocated... 

     total cpu time spent up to now is        8.7 secs

     Self-consistent Calculation

     iteration #  1     ecut=    50.00 Ry     beta= 0.40
     Davidson diagonalization with overlap

---- Real-time Memory Report at c_bands before calling an iterative solver
           116 MiB given to the printing process from OS
             0 MiB allocation reported by mallinfo(arena+hblkhd)
          4450 MiB available memory on the node where the printing process lives
------------------
     ethr =  1.00E-02,  avg # of iterations =  2.4

     total cpu time spent up to now is       34.8 secs

     WARNING: integrated charge=    26.00041572, expected=    26.00000000

     total energy              =    -502.93406257 Ry
     estimated scf accuracy    <       0.60453548 Ry

     iteration #  2     ecut=    50.00 Ry     beta= 0.40
     Davidson diagonalization with overlap

---- Real-time Memory Report at c_bands before calling an iterative solver
           157 MiB given to the printing process from OS
             0 MiB allocation reported by mallinfo(arena+hblkhd)
          4427 MiB available memory on the node where the printing process lives
------------------
     ethr =  2.33E-03,  avg # of iterations =  2.0

     total cpu time spent up to now is       47.4 secs

     WARNING: integrated charge=    26.00031078, expected=    26.00000000

     total energy              =    -503.09829794 Ry
     estimated scf accuracy    <       0.22096775 Ry

     iteration #  3     ecut=    50.00 Ry     beta= 0.40
     Davidson diagonalization with overlap

---- Real-time Memory Report at c_bands before calling an iterative solver
           158 MiB given to the printing process from OS
             0 MiB allocation reported by mallinfo(arena+hblkhd)
          4423 MiB available memory on the node where the printing process lives
------------------
     ethr =  8.50E-04,  avg # of iterations =  2.1
     Minimization algorithm failed to find Fermi energy: reverting to bisection
     Possible cause: smearing is larger than the electronic band-gap.

     total cpu time spent up to now is       71.3 secs

     WARNING: integrated charge=    26.00007515, expected=    26.00000000

     total energy              =    -503.13204752 Ry
     estimated scf accuracy    <       0.00773926 Ry

     iteration #  4     ecut=    50.00 Ry     beta= 0.40
     Davidson diagonalization with overlap

---- Real-time Memory Report at c_bands before calling an iterative solver
           159 MiB given to the printing process from OS
             0 MiB allocation reported by mallinfo(arena+hblkhd)
          4419 MiB available memory on the node where the printing process lives
------------------
     ethr =  2.98E-05,  avg # of iterations =  2.2

     total cpu time spent up to now is       96.9 secs

     WARNING: integrated charge=    26.00002638, expected=    26.00000000

     total energy              =    -503.13276414 Ry
     estimated scf accuracy    <       0.00017984 Ry

     iteration #  5     ecut=    50.00 Ry     beta= 0.40
     Davidson diagonalization with overlap

---- Real-time Memory Report at c_bands before calling an iterative solver
           160 MiB given to the printing process from OS
             0 MiB allocation reported by mallinfo(arena+hblkhd)
          4417 MiB available memory on the node where the printing process lives
------------------
     ethr =  6.92E-07,  avg # of iterations =  2.3

     total cpu time spent up to now is      108.0 secs

     WARNING: integrated charge=    26.00001501, expected=    26.00000000

     total energy              =    -503.13278628 Ry
     estimated scf accuracy    <       0.00001738 Ry

     iteration #  6     ecut=    50.00 Ry     beta= 0.40
     Davidson diagonalization with overlap

---- Real-time Memory Report at c_bands before calling an iterative solver
           160 MiB given to the printing process from OS
             0 MiB allocation reported by mallinfo(arena+hblkhd)
          4416 MiB available memory on the node where the printing process lives
------------------
     ethr =  6.68E-08,  avg # of iterations =  2.0

     total cpu time spent up to now is      132.3 secs

     total energy              =    -503.13278881 Ry
     estimated scf accuracy    <       0.00000962 Ry

     iteration #  7     ecut=    50.00 Ry     beta= 0.40
     Davidson diagonalization with overlap

---- Real-time Memory Report at c_bands before calling an iterative solver
           160 MiB given to the printing process from OS
             0 MiB allocation reported by mallinfo(arena+hblkhd)
          4416 MiB available memory on the node where the printing process lives
------------------
     ethr =  3.70E-08,  avg # of iterations =  2.0

     total cpu time spent up to now is      164.4 secs

     total energy              =    -503.13278938 Ry
     estimated scf accuracy    <       0.00000008 Ry

     iteration #  8     ecut=    50.00 Ry     beta= 0.40
     Davidson diagonalization with overlap

---- Real-time Memory Report at c_bands before calling an iterative solver
           160 MiB given to the printing process from OS
             0 MiB allocation reported by mallinfo(arena+hblkhd)
          4291 MiB available memory on the node where the printing process lives
------------------
     ethr =  3.25E-10,  avg # of iterations =  2.9

     total cpu time spent up to now is      195.8 secs

     total energy              =    -503.13278938 Ry
     estimated scf accuracy    <       0.00000023 Ry

     iteration #  9     ecut=    50.00 Ry     beta= 0.40
     Davidson diagonalization with overlap

---- Real-time Memory Report at c_bands before calling an iterative solver
           161 MiB given to the printing process from OS
             0 MiB allocation reported by mallinfo(arena+hblkhd)
          4205 MiB available memory on the node where the printing process lives
------------------
     ethr =  3.25E-10,  avg # of iterations =  2.3

     total cpu time spent up to now is      222.0 secs

     End of self-consistent calculation

          k = 0.0000 0.0000 0.0000 (  1021 PWs)   bands (ev):

  -117.0046 -71.1858 -71.1858 -71.1858  -8.8243   1.6892   1.6892   2.2705
     2.2705   2.2705   5.8774   7.1377   7.1377   7.1377  20.5460  20.5460
    21.6748

     occupation numbers 
     1.0000   1.0000   1.0000   1.0000   1.0000   1.0000   1.0000   1.0000
     1.0000   1.0000   1.0000   1.0000   1.0000   1.0000   0.0000   0.0000
     0.0000

          k = 0.0000 0.0000 0.0833 (  1025 PWs)   bands (ev):

  -117.0046 -71.1861 -71.1857 -71.1857  -8.7865   1.6932   1.7050   2.2516
     2.2516   2.2717   5.4423   7.1821   7.1821   7.5542  19.3752  20.6429
    21.6392

     occupation numbers 
     1.0000   1.0000   1.0000   1.0000   1.0000   1.0000   1.0000   1.0000
     1.0000   1.0000   1.0000   1.0001   1.0001   1.0628   0.0000   0.0000
     0.0000

          k = 0.0000 0.0000 0.1667 (  1029 PWs)   bands (ev):

  -117.0046 -71.1870 -71.1857 -71.1857  -8.6807   1.7043   1.7340   2.2011
     2.2011   2.2748   4.7191   7.3037   7.3037   8.2698  17.7778  20.9351
    21.5312

     occupation numbers 
     1.0000   1.0000   1.0000   1.0000   1.0000   1.0000   1.0000   1.0000
     1.0000   1.0000   1.0000   1.0014   1.0014   0.0009   0.0000   0.0000
     0.0000

          k = 0.0000 0.0000 0.2500 (  1049 PWs)   bands (ev):

  -117.0046 -71.1883 -71.1858 -71.1858  -8.5293   1.7194   1.7225   2.1345
     2.1345   2.2790   4.0793   7.4707   7.4707   9.0441  16.1778  21.3580
    21.3580

     occupation numbers 
     1.0000   1.0000   1.0000   1.0000   1.0000   1.0000   1.0000   1.0000
     1.0000   1.0000   1.0000   1.0267   1.0267   0.0000   0.0000   0.0000
     0.0000

          k = 0.0000 0.0000 0.3333 (  1048 PWs)   bands (ev):

  -117.0045 -71.1894 -71.1857 -71.1857  -8.3692   1.6183   1.7345   2.0707
     2.0707   2.2833   3.6644   7.6395   7.6395   9.8856  14.6483  21.1559
    21.1560

     occupation numbers 
     1.0000   1.0000   1.0000   1.0000   1.0000   1.0000   1.0000   1.0000
     1.0000   1.0000   1.0000   1.0819   1.0819   0.0000   0.0000   0.0000
     0.0000

          k = 0.0000 0.0000 0.4167 (  1056 PWs)   bands (ev):

  -117.0045 -71.1903 -71.1857 -71.1857  -8.2455   1.4657   1.7456   2.0255
     2.0255   2.2865   3.4822   7.7646   7.7646  10.8308  13.2453  20.9907
    20.9907

     occupation numbers 
     1.0000   1.0000   1.0000   1.0000   1.0000   1.0000   1.0000   1.0000
     1.0000   1.0000   1.0000   0.9033   0.9033   0.0000   0.0000   0.0000
     0.0000

          k = 0.0000 0.0000-0.5000 (  1044 PWs)   bands (ev):

  -117.0044 -71.1905 -71.1856 -71.1856  -8.1987   1.3936   1.7497   2.0093
     2.0093   2.2876   3.4384   7.8107   7.8107  11.7203  12.1952  20.9268
    20.9268

     occupation numbers 
     1.0000   1.0000   1.0000   1.0000   1.0000   1.0000   1.0000   1.0000
     1.0000   1.0000   1.0000   0.7559   0.7559   0.0000   0.0000   0.0000
     0.0000

          k = 0.0000 0.0833 0.0833 (  1031 PWs)   bands (ev):

  -117.0046 -71.1861 -71.1861 -71.1857  -8.7494   1.7025   1.7174   2.2325
     2.2456   2.2611   5.2190   6.9720   7.2238   8.0103  19.2256  19.7211
    21.6159

     occupation numbers 
     1.0000   1.0000   1.0000   1.0000   1.0000   1.0000   1.0000   1.0000
     1.0000   1.0000   1.0000   1.0000   1.0002   0.1320   0.0000   0.0000
     0.0000

          k = 0.0000 0.0833 0.1667 (  1040 PWs)   bands (ev):

  -117.0046 -71.1870 -71.1861 -71.1857  -8.6457   1.7145   1.7509   2.1827
     2.2012   2.2610   4.6802   6.9406   7.3377   8.6837  17.8228  19.6402
    21.5412

     occupation numbers 
     1.0000   1.0000   1.0000   1.0000   1.0000   1.0000   1.0000   1.0000
     1.0000   1.0000   1.0000   1.0000   1.0028   0.0000   0.0000   0.0000
     0.0000

          k = 0.0000 0.0833 0.2500 (  1041 PWs)   bands (ev):

  -117.0045 -71.1881 -71.1861 -71.1857  -8.4975   1.7227   1.7562   2.1213
     2.1378   2.2660   4.1089   7.0781   7.4942   9.3949  16.2191  19.7834
    21.4129

     occupation numbers 
     1.0000   1.0000   1.0000   1.0000   1.0000   1.0000   1.0000   1.0000
     1.0000   1.0000   1.0000   1.0000   1.0356   0.0000   0.0000   0.0000
     0.0000

          k = 0.0000 0.0833 0.3333 (  1049 PWs)   bands (ev):

  -117.0045 -71.1894 -71.1860 -71.1857  -8.3409   1.6520   1.7541   2.0658
     2.0764   2.2713   3.7066   7.2671   7.6523  10.1626  14.6873  19.9151
    21.2541

     occupation numbers 
     1.0000   1.0000   1.0000   1.0000   1.0000   1.0000   1.0000   1.0000
     1.0000   1.0000   1.0000   1.0006   1.0781   0.0000   0.0000   0.0000
     0.0000

          k = 0.0000 0.0833 0.4167 (  1050 PWs)   bands (ev):

  -117.0045 -71.1902 -71.1859 -71.1856  -8.2202   1.5198   1.7644   2.0243
     2.0328   2.2752   3.5183   7.4222   7.7693  11.0394  13.2939  19.9894
    21.1189

     occupation numbers 
     1.0000   1.0000   1.0000   1.0000   1.0000   1.0000   1.0000   1.0000
     1.0000   1.0000   1.0000   1.0132   0.8900   0.0000   0.0000   0.0000
     0.0000

          k = 0.0000 0.0833-0.5000 (  1050 PWs)   bands (ev):

  -117.0044 -71.1905 -71.1860 -71.1856  -8.1746   1.4559   1.7686   2.0085
     2.0171   2.2767   3.4708   7.4818   7.8124  12.0656  12.0847  20.0101
    21.0655

     occupation numbers 
     1.0000   1.0000   1.0000   1.0000   1.0000   1.0000   1.0000   1.0000
     1.0000   1.0000   1.0000   1.0307   0.7499   0.0000   0.0000   0.0000
     0.0000

          k = 0.0000 0.1667 0.1667 (  1041 PWs)   bands (ev):

  -117.0046 -71.1870 -71.1869 -71.1857  -8.5480   1.7254   1.8030   2.1369
     2.1904   2.2352   4.5075   6.5237   7.4308   9.3382  17.9261  17.9831
    21.5599

     occupation numbers 
     1.0000   1.0000   1.0000   1.0000   1.0000   1.0000   1.0000   1.0000
     1.0000   1.0000   1.0000   1.0000   1.0151   0.0000   0.0000   0.0000
     0.0000

          k = 0.0000 0.1667 0.2500 (  1045 PWs)   bands (ev):

  -117.0045 -71.1881 -71.1869 -71.1856  -8.4088   1.7275   1.8454   2.0888
     2.1449   2.2324   4.1703   6.4096   7.5585   9.9838  16.3111  18.1252
    21.5627

     occupation numbers 
     1.0000   1.0000   1.0000   1.0000   1.0000   1.0000   1.0000   1.0000
     1.0000   1.0000   1.0000   1.0000   1.0647   0.0000   0.0000   0.0000
     0.0000

          k = 0.0000 0.1667 0.3333 (  1050 PWs)   bands (ev):

  -117.0045 -71.1893 -71.1868 -71.1857  -8.2624   1.7024   1.8457   2.0548
     2.0917   2.2389   3.8316   6.5203   7.6871  10.6187  14.8063  18.3135
    21.5353

     occupation numbers 
     1.0000   1.0000   1.0000   1.0000   1.0000   1.0000   1.0000   1.0000
     1.0000   1.0000   1.0000   1.0000   1.0531   0.0000   0.0000   0.0000
     0.0000

          k = 0.0000 0.1667 0.4167 (  1049 PWs)   bands (ev):

  -117.0044 -71.1901 -71.1868 -71.1856  -8.1499   1.6424   1.8390   2.0238
     2.0528   2.2448   3.6341   6.6788   7.7822  11.2744  13.5462  18.4629
    21.4942

     occupation numbers 
     1.0000   1.0000   1.0000   1.0000   1.0000   1.0000   1.0000   1.0000
     1.0000   1.0000   1.0000   1.0000   0.8514   0.0000   0.0000   0.0000
     0.0000

          k = 0.0000 0.1667-0.5000 (  1068 PWs)   bands (ev):

  -117.0044 -71.1905 -71.1868 -71.1857  -8.1076   1.6078   1.8384   2.0089
     2.0386   2.2469   3.5771   6.7497   7.8171  11.7407  12.8612  18.5208
    21.4745

     occupation numbers 
     1.0000   1.0000   1.0000   1.0000   1.0000   1.0000   1.0000   1.0000
     1.0000   1.0000   1.0000   1.0000   0.7331   0.0000   0.0000   0.0000
     0.0000

          k = 0.0000 0.2500 0.2500 (  1057 PWs)   bands (ev):

  -117.0045 -71.1881 -71.1881 -71.1858  -8.2831   1.7314   1.9453   2.0558
     2.1424   2.1997   4.1692   5.9145   7.6464  10.5006  16.0701  16.9866
    21.7641

     occupation numbers 
     1.0000   1.0000   1.0000   1.0000   1.0000   1.0000   1.0000   1.0000
     1.0000   1.0000   1.0000   1.0000   1.0802   0.0000   0.0000   0.0000
     0.0000

          k = 0.0000 0.2500 0.3333 (  1049 PWs)   bands (ev):

  -117.0044 -71.1891 -71.1880 -71.1857  -8.1515   1.7332   1.9928   2.0484
     2.1114   2.1967   4.0211   5.7831   7.7348  10.8745  14.9776  17.0081
    21.9564

     occupation numbers 
     1.0000   1.0000   1.0000   1.0000   1.0000   1.0000   1.0000   1.0000
     1.0000   1.0000   1.0000   1.0000   0.9771   0.0000   0.0000   0.0000
     0.0000

          k = 0.0000 0.2500 0.4167 (  1054 PWs)   bands (ev):

  -117.0044 -71.1900 -71.1879 -71.1856  -8.0510   1.7352   1.9966   2.0399
     2.0802   2.2037   3.8477   5.8780   7.7997  11.0884  14.1196  17.1916
    22.0863

     occupation numbers 
     1.0000   1.0000   1.0000   1.0000   1.0000   1.0000   1.0000   1.0000
     1.0000   1.0000   1.0000   1.0000   0.7940   0.0000   0.0000   0.0000
     0.0000

          k = 0.0000 0.2500-0.5000 (  1060 PWs)   bands (ev):

  -117.0044 -71.1904 -71.1880 -71.1856  -8.0133   1.7371   2.0061   2.0174
     2.0683   2.2069   3.7816   5.9453   7.8236  11.1542  13.8095  17.2737
    22.1305

     occupation numbers 
     1.0000   1.0000   1.0000   1.0000   1.0000   1.0000   1.0000   1.0000
     1.0000   1.0000   1.0000   1.0000   0.7096   0.0000   0.0000   0.0000
     0.0000

          k = 0.0000 0.3333 0.3333 (  1057 PWs)   bands (ev):

  -117.0044 -71.1892 -71.1891 -71.1856  -8.0361   1.7623   2.0355   2.1223
     2.1325   2.1640   4.1808   5.2910   7.7824  10.8081  15.0217  16.3464
    22.4325

     occupation numbers 
     1.0000   1.0000   1.0000   1.0000   1.0000   1.0000   1.0000   1.0000
     1.0000   1.0000   1.0000   1.0000   0.8505   0.0000   0.0000   0.0000
     0.0000

          k = 0.0000 0.3333 0.4167 (  1051 PWs)   bands (ev):

  -117.0043 -71.1900 -71.1890 -71.1855  -7.9486   1.7914   2.0374   2.1074
     2.1635   2.1995   4.1545   5.2027   7.8174  10.5483  14.8425  16.3498
    22.8266

     occupation numbers 
     1.0000   1.0000   1.0000   1.0000   1.0000   1.0000   1.0000   1.0000
     1.0000   1.0000   1.0000   1.0000   0.7321   0.0000   0.0000   0.0000
     0.0000

          k = 0.0000 0.3333-0.5000 (  1046 PWs)   bands (ev):

  -117.0043 -71.1902 -71.1890 -71.1855  -7.9158   1.8055   2.0389   2.0981
     2.1673   2.2148   4.0966   5.2504   7.8302  10.4041  14.7504  16.4364
    22.3077

     occupation numbers 
     1.0000   1.0000   1.0000   1.0000   1.0000   1.0000   1.0000   1.0000
     1.0000   1.0000   1.0000   1.0000   0.6853   0.0000   0.0000   0.0000
     0.0000

          k = 0.0000 0.4167 0.4167 (  1047 PWs)   bands (ev):

  -117.0043 -71.1899 -71.1898 -71.1855  -7.8711   1.8294   2.0572   2.1241
     2.1378   2.3198   4.4277   4.8021   7.8304   9.9725  15.4072  15.9681
    21.7931

     occupation numbers 
     1.0000   1.0000   1.0000   1.0000   1.0000   1.0000   1.0000   1.0000
     1.0000   1.0000   1.0000   1.0000   0.6847   0.0000   0.0000   0.0000
     0.0000

          k = 0.0000 0.4167-0.5000 (  1048 PWs)   bands (ev):

  -117.0043 -71.1902 -71.1898 -71.1854  -7.8422   1.8439   2.0670   2.1200
     2.1386   2.3585   4.4433   4.7773   7.8351   9.7200  15.5200  15.9829
    21.4635

     occupation numbers 
     1.0000   1.0000   1.0000   1.0000   1.0000   1.0000   1.0000   1.0000
     1.0000   1.0000   1.0000   1.0000   0.6670   0.0000   0.0000   0.0000
     0.0000

          k = 0.0000-0.5000-0.5000 (  1056 PWs)   bands (ev):

  -117.0043 -71.1902 -71.1902 -71.1855  -7.8148   1.8568   2.0811   2.1281
     2.1281   2.4068   4.6080   4.6080   7.8370   9.4302  15.8420  15.8420
    21.1017

     occupation numbers 
     1.0000   1.0000   1.0000   1.0000   1.0000   1.0000   1.0000   1.0000
     1.0000   1.0000   1.0000   1.0000   0.6603   0.0000   0.0000   0.0000
     0.0000

          k = 0.0833 0.0833 0.0833 (  1042 PWs)   bands (ev):

  -117.0046 -71.1862 -71.1861 -71.1861  -8.7131   1.7216   1.7216   2.2223
     2.2411   2.2411   5.0658   7.0200   7.0200   8.3775  19.2558  19.2558
    20.7601

     occupation numbers 
     1.0000   1.0000   1.0000   1.0000   1.0000   1.0000   1.0000   1.0000
     1.0000   1.0000   1.0000   1.0000   1.0000   0.0000   0.0000   0.0000
     0.0000

          k = 0.0833 0.0833 0.1667 (  1046 PWs)   bands (ev):

  -117.0046 -71.1870 -71.1861 -71.1861  -8.6113   1.7332   1.7605   2.1817
     2.1878   2.2444   4.6426   6.8878   7.1514   8.9995  17.8624  19.3337
    20.6039

     occupation numbers 
     1.0000   1.0000   1.0000   1.0000   1.0000   1.0000   1.0000   1.0000
     1.0000   1.0000   1.0000   1.0000   1.0000   0.0000   0.0000   0.0000
     0.0000

          k = 0.0833 0.0833 0.2500 (  1047 PWs)   bands (ev):

  -117.0045 -71.1882 -71.1861 -71.1861  -8.4661   1.7496   1.7664   2.1174
     2.1332   2.2510   4.1340   6.9543   7.3326   9.6601  16.2691  19.4238
    20.7050

     occupation numbers 
     1.0000   1.0000   1.0000   1.0000   1.0000   1.0000   1.0000   1.0000
     1.0000   1.0000   1.0000   1.0000   1.0025   0.0000   0.0000   0.0000
     0.0000

          k = 0.0833 0.0833 0.3333 (  1051 PWs)   bands (ev):

  -117.0045 -71.1893 -71.1860 -71.1860  -8.3129   1.6912   1.7667   2.0491
     2.0925   2.2577   3.7490   7.1098   7.5165  10.3678  14.7438  19.4837
    20.8224

     occupation numbers 
     1.0000   1.0000   1.0000   1.0000   1.0000   1.0000   1.0000   1.0000
     1.0000   1.0000   1.0000   1.0000   1.0452   0.0000   0.0000   0.0000
     0.0000

          k = 0.0833 0.0833 0.4167 (  1049 PWs)   bands (ev):

  -117.0044 -71.1902 -71.1859 -71.1859  -8.1949   1.5728   1.7804   1.9997
     2.0606   2.2628   3.5587   7.2529   7.6533  11.1770  13.3753  19.4994
    20.8987

     occupation numbers 
     1.0000   1.0000   1.0000   1.0000   1.0000   1.0000   1.0000   1.0000
     1.0000   1.0000   1.0000   1.0004   1.0777   0.0000   0.0000   0.0000
     0.0000

          k = 0.0833 0.0833-0.5000 (  1052 PWs)   bands (ev):

  -117.0044 -71.1905 -71.1860 -71.1859  -8.1504   1.5153   1.7858   1.9816
     2.0476   2.2647   3.5089   7.3101   7.7040  11.9925  12.3604  19.4978
    20.9237

     occupation numbers 
     1.0000   1.0000   1.0000   1.0000   1.0000   1.0000   1.0000   1.0000
     1.0000   1.0000   1.0000   1.0016   1.0321   0.0000   0.0000   0.0000
     0.0000

          k = 0.0833 0.1667 0.1667 (  1048 PWs)   bands (ev):

  -117.0045 -71.1871 -71.1869 -71.1860  -8.5153   1.7530   1.8068   2.1419
     2.1800   2.2126   4.4862   6.5821   7.1828   9.5684  17.9090  18.0539
    20.3903

     occupation numbers 
     1.0000   1.0000   1.0000   1.0000   1.0000   1.0000   1.0000   1.0000
     1.0000   1.0000   1.0000   1.0000   1.0001   0.0000   0.0000   0.0000
     0.0000

          k = 0.0833 0.1667 0.2500 (  1047 PWs)   bands (ev):

  -117.0045 -71.1881 -71.1869 -71.1860  -8.3786   1.7610   1.8486   2.0876
     2.1416   2.2129   4.1849   6.4430   7.3352  10.1480  16.3861  18.0909
    20.5778

     occupation numbers 
     1.0000   1.0000   1.0000   1.0000   1.0000   1.0000   1.0000   1.0000
     1.0000   1.0000   1.0000   1.0000   1.0027   0.0000   0.0000   0.0000
     0.0000

          k = 0.0833 0.1667 0.3333 (  1048 PWs)   bands (ev):

  -117.0044 -71.1892 -71.1868 -71.1859  -8.2350   1.7452   1.8487   2.0290
     2.1132   2.2223   3.8735   6.5126   7.4987  10.7213  14.9012  18.1813
    20.8302

     occupation numbers 
     1.0000   1.0000   1.0000   1.0000   1.0000   1.0000   1.0000   1.0000
     1.0000   1.0000   1.0000   1.0000   1.0374   0.0000   0.0000   0.0000
     0.0000

          k = 0.0833 0.1667 0.4167 (  1053 PWs)   bands (ev):

  -117.0044 -71.1901 -71.1868 -71.1859  -8.1248   1.6915   1.8468   1.9794
     2.0917   2.2302   3.6865   6.6418   7.6221  11.3092  13.6781  18.2261
    21.0411

     occupation numbers 
     1.0000   1.0000   1.0000   1.0000   1.0000   1.0000   1.0000   1.0000
     1.0000   1.0000   1.0000   1.0000   1.0833   0.0000   0.0000   0.0000
     0.0000

          k = 0.0833 0.1667-0.5000 (  1052 PWs)   bands (ev):

  -117.0044 -71.1905 -71.1868 -71.1859  -8.0833   1.6593   1.8495   1.9594
     2.0814   2.2333   3.6316   6.7021   7.6680  11.6971  13.0605  18.2371
    21.1254

     occupation numbers 
     1.0000   1.0000   1.0000   1.0000   1.0000   1.0000   1.0000   1.0000
     1.0000   1.0000   1.0000   1.0000   1.0697   0.0000   0.0000   0.0000
     0.0000

          k = 0.0833 0.2500 0.2500 (  1047 PWs)   bands (ev):

  -117.0044 -71.1881 -71.1880 -71.1859  -8.2546   1.7662   1.9441   2.0496
     2.1490   2.1762   4.1827   5.9894   7.4413  10.5903  16.2154  16.9155
    20.8142

     occupation numbers 
     1.0000   1.0000   1.0000   1.0000   1.0000   1.0000   1.0000   1.0000
     1.0000   1.0000   1.0000   1.0000   1.0177   0.0000   0.0000   0.0000
     0.0000

          k = 0.0833 0.2500 0.3333 (  1043 PWs)   bands (ev):

  -117.0044 -71.1891 -71.1879 -71.1859  -8.1250   1.7690   1.9897   2.0156
     2.1335   2.1804   4.0612   5.8443   7.5595  10.9153  15.0949  16.9089
    21.1480

     occupation numbers 
     1.0000   1.0000   1.0000   1.0000   1.0000   1.0000   1.0000   1.0000
     1.0000   1.0000   1.0000   1.0000   1.0652   0.0000   0.0000   0.0000
     0.0000

          k = 0.0833 0.2500 0.4167 (  1050 PWs)   bands (ev):

  -117.0043 -71.1900 -71.1879 -71.1859  -8.0260   1.7731   1.9729   1.9997
     2.1183   2.1931   3.9166   5.9113   7.6496  11.1082  14.2231  17.0140
    21.4664

     occupation numbers 
     1.0000   1.0000   1.0000   1.0000   1.0000   1.0000   1.0000   1.0000
     1.0000   1.0000   1.0000   1.0000   1.0791   0.0000   0.0000   0.0000
     0.0000

          k = 0.0833 0.2500-0.5000 (  1058 PWs)   bands (ev):

  -117.0043 -71.1904 -71.1879 -71.1859  -7.9889   1.7771   1.9527   1.9995
     2.1080   2.1986   3.8607   5.9668   7.6833  11.1708  13.9069  17.0540
    21.6123

     occupation numbers 
     1.0000   1.0000   1.0000   1.0000   1.0000   1.0000   1.0000   1.0000
     1.0000   1.0000   1.0000   1.0000   1.0571   0.0000   0.0000   0.0000
     0.0000

          k = 0.0833 0.3333 0.3333 (  1047 PWs)   bands (ev):

  -117.0043 -71.1892 -71.1890 -71.1858  -8.0105   1.7926   2.0019   2.0800
     2.1426   2.1816   4.2283   5.3864   7.6308  10.8417  15.1002  16.2245
    21.5756

     occupation numbers 
     1.0000   1.0000   1.0000   1.0000   1.0000   1.0000   1.0000   1.0000
     1.0000   1.0000   1.0000   1.0000   1.0831   0.0000   0.0000   0.0000
     0.0000

          k = 0.0833 0.3333 0.4167 (  1053 PWs)   bands (ev):

  -117.0043 -71.1899 -71.1891 -71.1858  -7.9237   1.8222   1.9837   2.0897
     2.1331   2.2307   4.2385   5.2869   7.6858  10.6016  14.8523  16.1893
    21.9957

     occupation numbers 
     1.0000   1.0000   1.0000   1.0000   1.0000   1.0000   1.0000   1.0000
     1.0000   1.0000   1.0000   1.0000   1.0545   0.0000   0.0000   0.0000
     0.0000

          k = 0.0833 0.3333-0.5000 (  1048 PWs)   bands (ev):

  -117.0043 -71.1902 -71.1890 -71.1857  -7.8912   1.8408   1.9687   2.1003
     2.1182   2.2478   4.2008   5.3230   7.7065  10.4681  14.7396  16.2426
    22.2615

     occupation numbers 
     1.0000   1.0000   1.0000   1.0000   1.0000   1.0000   1.0000   1.0000
     1.0000   1.0000   1.0000   1.0000   1.0284   0.0000   0.0000   0.0000
     0.0000

          k = 0.0833 0.4167 0.4167 (  1043 PWs)   bands (ev):

  -117.0042 -71.1899 -71.1898 -71.1857  -7.8463   1.8617   2.0015   2.0802
     2.1207   2.3290   4.5261   4.9183   7.7141  10.0525  15.3183  15.8106
    21.9315

     occupation numbers 
     1.0000   1.0000   1.0000   1.0000   1.0000   1.0000   1.0000   1.0000
     1.0000   1.0000   1.0000   1.0000   1.0163   0.0000   0.0000   0.0000
     0.0000

          k = 0.0833 0.4167-0.5000 (  1042 PWs)   bands (ev):

  -117.0042 -71.1901 -71.1898 -71.1857  -7.8175   1.8798   2.0081   2.0827
     2.1032   2.3644   4.5643   4.8883   7.7249   9.8087  15.4028  15.8061
    21.6710

     occupation numbers 
     1.0000   1.0000   1.0000   1.0000   1.0000   1.0000   1.0000   1.0000
     1.0000   1.0000   1.0000   1.0000   0.9971   0.0000   0.0000   0.0000
     0.0000

          k = 0.0833-0.5000-0.5000 (  1044 PWs)   bands (ev):

  -117.0042 -71.1901 -71.1901 -71.1858  -7.7900   1.8941   2.0503   2.0713
     2.0713   2.4075   4.7347   4.7347   7.7318   9.5258  15.6719  15.6719
    21.3426

     occupation numbers 
     1.0000   1.0000   1.0000   1.0000   1.0000   1.0000   1.0000   1.0000
     1.0000   1.0000   1.0000   1.0000   0.9834   0.0000   0.0000   0.0000
     0.0000

          k = 0.1667 0.1667 0.1667 (  1057 PWs)   bands (ev):

  -117.0045 -71.1871 -71.1869 -71.1869  -8.4241   1.8174   1.8174   2.1528
     2.1528   2.1578   4.3990   6.7429   6.7429  10.0165  17.8517  17.8517
    19.2144

     occupation numbers 
     1.0000   1.0000   1.0000   1.0000   1.0000   1.0000   1.0000   1.0000
     1.0000   1.0000   1.0000   1.0000   1.0000   0.0000   0.0000   0.0000
     0.0000

          k = 0.1667 0.1667 0.2500 (  1048 PWs)   bands (ev):

  -117.0045 -71.1880 -71.1869 -71.1868  -8.2945   1.8328   1.8668   2.0743
     2.1379   2.1708   4.2155   6.4512   6.9661  10.4712  16.5421  17.7450
    19.4030

     occupation numbers 
     1.0000   1.0000   1.0000   1.0000   1.0000   1.0000   1.0000   1.0000
     1.0000   1.0000   1.0000   1.0000   1.0000   0.0000   0.0000   0.0000
     0.0000

          k = 0.1667 0.1667 0.3333 (  1044 PWs)   bands (ev):

  -117.0044 -71.1891 -71.1868 -71.1867  -8.1587   1.8504   1.8553   1.9976
     2.1364   2.1839   3.9953   6.3837   7.1954  10.9027  15.1314  17.5999
    19.9831

     occupation numbers 
     1.0000   1.0000   1.0000   1.0000   1.0000   1.0000   1.0000   1.0000
     1.0000   1.0000   1.0000   1.0000   1.0001   0.0000   0.0000   0.0000
     0.0000

          k = 0.1667 0.1667 0.4167 (  1048 PWs)   bands (ev):

  -117.0044 -71.1900 -71.1867 -71.1867  -8.0549   1.8081   1.8698   1.9372
     2.1262   2.1962   3.8467   6.4328   7.3683  11.3129  14.0239  17.4663
    20.5233

     occupation numbers 
     1.0000   1.0000   1.0000   1.0000   1.0000   1.0000   1.0000   1.0000
     1.0000   1.0000   1.0000   1.0000   1.0052   0.0000   0.0000   0.0000
     0.0000

          k = 0.1667 0.1667-0.5000 (  1064 PWs)   bands (ev):

  -117.0044 -71.1905 -71.1868 -71.1867  -8.0159   1.7826   1.8897   1.9027
     2.1178   2.2016   3.8001   6.4677   7.4329  11.5378  13.5461  17.4111
    20.7534

     occupation numbers 
     1.0000   1.0000   1.0000   1.0000   1.0000   1.0000   1.0000   1.0000
     1.0000   1.0000   1.0000   1.0000   1.0156   0.0000   0.0000   0.0000
     0.0000

          k = 0.1667 0.2500 0.2500 (  1050 PWs)   bands (ev):

  -117.0044 -71.1880 -71.1879 -71.1868  -8.1755   1.8482   1.9355   2.0407
     2.1205   2.1631   4.2246   6.1959   6.9725  10.7698  16.5267  16.7055
    19.3160

     occupation numbers 
     1.0000   1.0000   1.0000   1.0000   1.0000   1.0000   1.0000   1.0000
     1.0000   1.0000   1.0000   1.0000   1.0000   0.0000   0.0000   0.0000
     0.0000

          k = 0.1667 0.2500 0.3333 (  1044 PWs)   bands (ev):

  -117.0043 -71.1891 -71.1879 -71.1867  -8.0512   1.8448   1.9547   1.9948
     2.1417   2.1628   4.1810   6.0032   7.1512  10.9943  15.3414  16.5923
    19.8179

     occupation numbers 
     1.0000   1.0000   1.0000   1.0000   1.0000   1.0000   1.0000   1.0000
     1.0000   1.0000   1.0000   1.0000   1.0000   0.0000   0.0000   0.0000
     0.0000

          k = 0.1667 0.2500 0.4167 (  1044 PWs)   bands (ev):

  -117.0043 -71.1899 -71.1878 -71.1866  -7.9565   1.8445   1.9110   1.9855
     2.1375   2.1796   4.1186   5.9826   7.3060  11.1404  14.4527  16.4792
    20.4218

     occupation numbers 
     1.0000   1.0000   1.0000   1.0000   1.0000   1.0000   1.0000   1.0000
     1.0000   1.0000   1.0000   1.0000   1.0014   0.0000   0.0000   0.0000
     0.0000

          k = 0.1667 0.2500-0.5000 (  1044 PWs)   bands (ev):

  -117.0043 -71.1903 -71.1878 -71.1866  -7.9211   1.8636   1.8681   1.9867
     2.1249   2.1909   4.0924   6.0014   7.3660  11.1941  14.1268  16.4249
    20.7155

     occupation numbers 
     1.0000   1.0000   1.0000   1.0000   1.0000   1.0000   1.0000   1.0000
     1.0000   1.0000   1.0000   1.0000   1.0050   0.0000   0.0000   0.0000
     0.0000

          k = 0.1667 0.3333 0.3333 (  1048 PWs)   bands (ev):

  -117.0043 -71.1891 -71.1890 -71.1866  -7.9394   1.8335   1.9779   1.9916
     2.1479   2.1952   4.3750   5.6480   7.2523  10.9269  15.2342  15.8756
    20.1033

     occupation numbers 
     1.0000   1.0000   1.0000   1.0000   1.0000   1.0000   1.0000   1.0000
     1.0000   1.0000   1.0000   1.0000   1.0004   0.0000   0.0000   0.0000
     0.0000

          k = 0.1667 0.3333 0.4167 (  1047 PWs)   bands (ev):

  -117.0043 -71.1899 -71.1890 -71.1865  -7.8546   1.8388   1.9381   2.0072
     2.1160   2.2548   4.4769   5.5189   7.3562  10.7495  14.8217  15.7262
    20.5794

     occupation numbers 
     1.0000   1.0000   1.0000   1.0000   1.0000   1.0000   1.0000   1.0000
     1.0000   1.0000   1.0000   1.0000   1.0041   0.0000   0.0000   0.0000
     0.0000

          k = 0.1667 0.3333-0.5000 (  1042 PWs)   bands (ev):

  -117.0042 -71.1902 -71.1889 -71.1865  -7.8229   1.8545   1.9067   2.0202
     2.0941   2.2757   4.4911   5.5205   7.3986  10.6486  14.6634  15.6920
    20.8590

     occupation numbers 
     1.0000   1.0000   1.0000   1.0000   1.0000   1.0000   1.0000   1.0000
     1.0000   1.0000   1.0000   1.0000   1.0089   0.0000   0.0000   0.0000
     0.0000

          k = 0.1667 0.4167 0.4167 (  1041 PWs)   bands (ev):

  -117.0042 -71.1898 -71.1898 -71.1864  -7.7775   1.8566   1.9495   1.9901
     2.0673   2.3414   4.7999   5.2321   7.4175  10.2902  15.0244  15.3673
    20.8582

     occupation numbers 
     1.0000   1.0000   1.0000   1.0000   1.0000   1.0000   1.0000   1.0000
     1.0000   1.0000   1.0000   1.0000   1.0123   0.0000   0.0000   0.0000
     0.0000

          k = 0.1667 0.4167-0.5000 (  1040 PWs)   bands (ev):

  -117.0042 -71.1901 -71.1898 -71.1864  -7.7487   1.8832   1.9285   2.0042
     2.0291   2.3730   4.8909   5.1887   7.4434  10.0766  15.0511  15.3077
    21.0372

     occupation numbers 
     1.0000   1.0000   1.0000   1.0000   1.0000   1.0000   1.0000   1.0000
     1.0000   1.0000   1.0000   1.0000   1.0183   0.0000   0.0000   0.0000
     0.0000

          k = 0.1667-0.5000-0.5000 (  1032 PWs)   bands (ev):

  -117.0042 -71.1900 -71.1900 -71.1864  -7.7211   1.9352   1.9352   1.9619
     1.9964   2.4093   5.0728   5.0728   7.4621   9.8193  15.1954  15.1954
    21.1189

     occupation numbers 
     1.0000   1.0000   1.0000   1.0000   1.0000   1.0000   1.0000   1.0000
     1.0000   1.0000   1.0000   1.0000   1.0238   0.0000   0.0000   0.0000
     0.0000

          k = 0.2500 0.2500 0.2500 (  1030 PWs)   bands (ev):

  -117.0043 -71.1879 -71.1878 -71.1878  -8.0637   1.9051   1.9051   2.0703
     2.0703   2.1694   4.2946   6.4847   6.4847  10.9309  16.3803  16.3803
    18.5646

     occupation numbers 
     1.0000   1.0000   1.0000   1.0000   1.0000   1.0000   1.0000   1.0000
     1.0000   1.0000   1.0000   1.0000   1.0000   0.0000   0.0000   0.0000
     0.0000

          k = 0.2500 0.2500 0.3333 (  1038 PWs)   bands (ev):

  -117.0043 -71.1890 -71.1878 -71.1877  -7.9472   1.8519   1.9015   2.0495
     2.1401   2.1530   4.3773   6.1420   6.7860  11.0449  15.4542  16.0095
    18.9850

     occupation numbers 
     1.0000   1.0000   1.0000   1.0000   1.0000   1.0000   1.0000   1.0000
     1.0000   1.0000   1.0000   1.0000   1.0000   0.0000   0.0000   0.0000
     0.0000

          k = 0.2500 0.2500 0.4167 (  1043 PWs)   bands (ev):

  -117.0042 -71.1899 -71.1878 -71.1877  -7.8587   1.8054   1.8869   2.0454
     2.1115   2.1981   4.4392   5.9883   7.0178  11.1151  14.6426  15.7082
    19.6566

     occupation numbers 
     1.0000   1.0000   1.0000   1.0000   1.0000   1.0000   1.0000   1.0000
     1.0000   1.0000   1.0000   1.0000   1.0000   0.0000   0.0000   0.0000
     0.0000

          k = 0.2500 0.2500-0.5000 (  1042 PWs)   bands (ev):

  -117.0042 -71.1902 -71.1877 -71.1877  -7.8256   1.7878   1.8812   2.0451
     2.0910   2.2168   4.4599   5.9558   7.1057  11.1404  14.3377  15.5914
    19.9841

     occupation numbers 
     1.0000   1.0000   1.0000   1.0000   1.0000   1.0000   1.0000   1.0000
     1.0000   1.0000   1.0000   1.0000   1.0000   0.0000   0.0000   0.0000
     0.0000

          k = 0.2500 0.3333 0.3333 (  1040 PWs)   bands (ev):

  -117.0042 -71.1889 -71.1889 -71.1877  -7.8392   1.8006   1.8610   2.0883
     2.1084   2.2049   4.6230   6.0138   6.8005  11.0280  15.1829  15.3619
    18.9282

     occupation numbers 
     1.0000   1.0000   1.0000   1.0000   1.0000   1.0000   1.0000   1.0000
     1.0000   1.0000   1.0000   1.0000   1.0000   0.0000   0.0000   0.0000
     0.0000

          k = 0.2500 0.3333 0.4167 (  1039 PWs)   bands (ev):

  -117.0042 -71.1897 -71.1889 -71.1876  -7.7573   1.7591   1.8387   2.0405
     2.1046   2.2725   4.8360   5.8372   6.9725  10.9503  14.6550  15.0476
    19.2488

     occupation numbers 
     1.0000   1.0000   1.0000   1.0000   1.0000   1.0000   1.0000   1.0000
     1.0000   1.0000   1.0000   1.0000   1.0000   0.0000   0.0000   0.0000
     0.0000

          k = 0.2500 0.3333-0.5000 (  1040 PWs)   bands (ev):

  -117.0042 -71.1901 -71.1889 -71.1876  -7.7267   1.7444   1.8337   2.0097
     2.1070   2.2973   4.9179   5.7810   7.0499  10.9004  14.4637  14.9165
    19.4391

     occupation numbers 
     1.0000   1.0000   1.0000   1.0000   1.0000   1.0000   1.0000   1.0000
     1.0000   1.0000   1.0000   1.0000   1.0000   0.0000   0.0000   0.0000
     0.0000

          k = 0.2500 0.4167 0.4167 (  1043 PWs)   bands (ev):

  -117.0042 -71.1898 -71.1897 -71.1876  -7.6805   1.7441   1.8032   1.9527
     2.1247   2.3501   5.1976   5.6659   7.0542  10.6737  14.5218  14.7295
    19.0931

     occupation numbers 
     1.0000   1.0000   1.0000   1.0000   1.0000   1.0000   1.0000   1.0000
     1.0000   1.0000   1.0000   1.0000   1.0000   0.0000   0.0000   0.0000
     0.0000

          k = 0.2500 0.4167-0.5000 (  1040 PWs)   bands (ev):

  -117.0041 -71.1900 -71.1897 -71.1876  -7.6519   1.7463   1.7946   1.9053
     2.1301   2.3798   5.3472   5.6041   7.1001  10.5247  14.5081  14.5912
    19.0624

     occupation numbers 
     1.0000   1.0000   1.0000   1.0000   1.0000   1.0000   1.0000   1.0000
     1.0000   1.0000   1.0000   1.0000   1.0000   0.0000   0.0000   0.0000
     0.0000

          k = 0.2500-0.5000-0.5000 (  1036 PWs)   bands (ev):

  -117.0041 -71.1900 -71.1900 -71.1875  -7.6239   1.7802   1.7802   1.8312
     2.1362   2.4116   5.5356   5.5356   7.1307  10.3288  14.5147  14.5147
    18.9208

     occupation numbers 
     1.0000   1.0000   1.0000   1.0000   1.0000   1.0000   1.0000   1.0000
     1.0000   1.0000   1.0000   1.0000   1.0000   0.0000   0.0000   0.0000
     0.0000

          k = 0.3333 0.3333 0.3333 (  1033 PWs)   bands (ev):

  -117.0042 -71.1888 -71.1888 -71.1888  -7.7351   1.7579   1.7579   2.0207
     2.2124   2.2124   4.9448   6.4000   6.4000  11.1007  14.8034  14.8034
    18.3523

     occupation numbers 
     1.0000   1.0000   1.0000   1.0000   1.0000   1.0000   1.0000   1.0000
     1.0000   1.0000   1.0000   1.0000   1.0000   0.0000   0.0000   0.0000
     0.0000

          k = 0.3333 0.3333 0.4167 (  1036 PWs)   bands (ev):

  -117.0041 -71.1897 -71.1888 -71.1887  -7.6563   1.6888   1.7379   1.9295
     2.2174   2.2985   5.2586   6.1125   6.7038  11.1179  14.3540  14.3626
    18.2041

     occupation numbers 
     1.0000   1.0000   1.0000   1.0000   1.0000   1.0000   1.0000   1.0000
     1.0000   1.0000   1.0000   1.0000   1.0000   0.0000   0.0000   0.0000
     0.0000

          k = 0.3333 0.3333-0.5000 (  1042 PWs)   bands (ev):

  -117.0041 -71.1901 -71.1888 -71.1887  -7.6269   1.6646   1.7368   1.8864
     2.2191   2.3292   5.4104   5.9899   6.8211  11.1107  14.1695  14.1934
    18.1896

     occupation numbers 
     1.0000   1.0000   1.0000   1.0000   1.0000   1.0000   1.0000   1.0000
     1.0000   1.0000   1.0000   1.0000   1.0000   0.0000   0.0000   0.0000
     0.0000

          k = 0.3333 0.4167 0.4167 (  1040 PWs)   bands (ev):

  -117.0041 -71.1897 -71.1896 -71.1887  -7.5799   1.6492   1.6790   1.8172
     2.2604   2.3560   5.6451   6.1252   6.7281  11.1577  13.9347  14.0481
    17.5063

     occupation numbers 
     1.0000   1.0000   1.0000   1.0000   1.0000   1.0000   1.0000   1.0000
     1.0000   1.0000   1.0000   1.0000   1.0000   0.0000   0.0000   0.0000
     0.0000

          k = 0.3333 0.4167-0.5000 (  1038 PWs)   bands (ev):

  -117.0041 -71.1900 -71.1896 -71.1887  -7.5513   1.6339   1.6716   1.7620
     2.2671   2.3854   5.8428   6.0385   6.8019  11.1328  13.8356  13.9002
    17.2511

     occupation numbers 
     1.0000   1.0000   1.0000   1.0000   1.0000   1.0000   1.0000   1.0000
     1.0000   1.0000   1.0000   1.0000   1.0000   0.0000   0.0000   0.0000
     0.0000

          k = 0.3333-0.5000-0.5000 (  1048 PWs)   bands (ev):

  -117.0041 -71.1900 -71.1900 -71.1887  -7.5231   1.6488   1.6488   1.6887
     2.2764   2.4138   6.0248   6.0248   6.8359  11.0761  13.7906  13.7906
    16.8762

     occupation numbers 
     1.0000   1.0000   1.0000   1.0000   1.0000   1.0000   1.0000   1.0000
     1.0000   1.0000   1.0000   1.0000   1.0000   0.0000   0.0000   0.0000
     0.0000

          k = 0.4167 0.4167 0.4167 (  1046 PWs)   bands (ev):

  -117.0041 -71.1897 -71.1897 -71.1895  -7.5036   1.5977   1.5977   1.6964
     2.3596   2.3596   6.0387   6.4922   6.4922  11.6034  13.5124  13.5124
    16.2857

     occupation numbers 
     1.0000   1.0000   1.0000   1.0000   1.0000   1.0000   1.0000   1.0000
     1.0000   1.0000   1.0000   1.0000   1.0000   0.0000   0.0000   0.0000
     0.0000

          k = 0.4167 0.4167-0.5000 (  1046 PWs)   bands (ev):

  -117.0041 -71.1899 -71.1897 -71.1895  -7.4751   1.5696   1.5911   1.6391
     2.3608   2.3957   6.2526   6.3542   6.6363  11.7786  13.3059  13.4109
    15.7734

     occupation numbers 
     1.0000   1.0000   1.0000   1.0000   1.0000   1.0000   1.0000   1.0000
     1.0000   1.0000   1.0000   1.0000   1.0000   0.0000   0.0000   0.0000
     0.0000

          k = 0.4167-0.5000-0.5000 (  1056 PWs)   bands (ev):

  -117.0041 -71.1900 -71.1900 -71.1896  -7.4467   1.5633   1.5633   1.5765
     2.3788   2.4156   6.4179   6.4179   6.6406  12.0685  13.2206  13.2206
    15.0741

     occupation numbers 
     1.0000   1.0000   1.0000   1.0000   1.0000   1.0000   1.0000   1.0000
     1.0000   1.0000   1.0000   1.0000   1.0000   0.0000   0.0000   0.0000
     0.0000

          k =-0.5000-0.5000-0.5000 (  1064 PWs)   bands (ev):

  -117.0041 -71.1900 -71.1900 -71.1900  -7.4182   1.5338   1.5338   1.5338
     2.4162   2.4162   6.5731   6.5731   6.5731  13.0001  13.0001  13.0001
    13.8675

     occupation numbers 
     1.0000   1.0000   1.0000   1.0000   1.0000   1.0000   1.0000   1.0000
     1.0000   1.0000   1.0000   1.0000   1.0000   0.0000   0.0000   0.0000
     0.0000

     the Fermi energy is     7.9076 ev

!    total energy              =    -503.13278943 Ry
     estimated scf accuracy    <          5.3E-09 Ry
     smearing contrib. (-TS)   =       0.00125871 Ry
     internal energy E=F+TS    =    -503.13404814 Ry

     The total energy is F=E-TS. E is the sum of the following terms:
     one-electron contribution =    -396.01813448 Ry
     hartree contribution      =     207.32358056 Ry
     xc contribution           =     -49.42507501 Ry
     ewald contribution        =    -255.47522138 Ry
     one-center paw contrib.   =      -9.53919784 Ry
      -> PAW hartree energy AE =      24.24444467 Ry
      -> PAW hartree energy PS =     -24.13931419 Ry
      -> PAW xc energy AE      =     -16.37829474 Ry
      -> PAW xc energy PS      =       6.73396642 Ry
      -> total E_H with PAW    =     207.42871104 Ry
      -> total E_XC with PAW   =     -59.06940333 Ry

     convergence has been achieved in   9 iterations

     Forces acting on atoms (cartesian axes, Ry/au):

     atom    1 type  2   force =     0.00000000    0.00000000    0.00000000
     atom    2 type  1   force =     0.00000000    0.00000000    0.00000000
     The non-local contrib.  to forces
     atom    1 type  2   force =     0.00000000    0.00000000    0.00000000
     atom    2 type  1   force =     0.00000000    0.00000000    0.00000000
     The ionic contribution  to forces
     atom    1 type  2   force =    -0.00000000   -0.00000000   -0.00000000
     atom    2 type  1   force =     0.00000000    0.00000000    0.00000000
     The local contribution  to forces
     atom    1 type  2   force =     0.00000000    0.00000000    0.00000000
     atom    2 type  1   force =     0.00000000    0.00000000    0.00000000
     The core correction contribution to forces
     atom    1 type  2   force =     0.00000000    0.00000000    0.00000000
     atom    2 type  1   force =     0.00000000    0.00000000    0.00000000
     The Hubbard contrib.    to forces
     atom    1 type  2   force =     0.00000000    0.00000000    0.00000000
     atom    2 type  1   force =     0.00000000    0.00000000    0.00000000
     The SCF correction term to forces
     atom    1 type  2   force =    -0.00000000   -0.00000000   -0.00000000
     atom    2 type  1   force =     0.00000000   -0.00000000    0.00000000

     Total force =     0.000000     Total SCF correction =     0.000000


     Computing stress (Cartesian axis) and pressure

          total   stress  (Ry/bohr**3)                   (kbar)     P=     -242.78
  -0.00165037   0.00000000   0.00000000         -242.78        0.00        0.00
   0.00000000  -0.00165037   0.00000000            0.00     -242.78        0.00
   0.00000000   0.00000000  -0.00165037            0.00        0.00     -242.78

     kinetic stress (kbar)  31566.21      0.00      0.00
                                0.00  31566.21      0.00
                                0.00      0.00  31566.21

     local   stress (kbar)  -4331.26     -0.00     -0.00
                               -0.00  -4331.26     -0.00
                               -0.00     -0.00  -4331.26

     nonloc. stress (kbar)   -753.89      0.00      0.00
                                0.00   -753.89      0.00
                                0.00      0.00   -753.89

     hartree stress (kbar)  58026.31      0.00      0.00
                                0.00  58026.31      0.00
                                0.00      0.00  58026.31

     exc-cor stress (kbar) -12891.14      0.00      0.00
                                0.00 -12891.14     -0.00
                                0.00     -0.00 -12891.14

     corecor stress (kbar)   -355.88      0.00      0.00
                                0.00   -355.88     -0.00
                                0.00     -0.00   -355.88

     ewald   stress (kbar) -71503.13      0.00     -0.00
                                0.00 -71503.13      0.00
                               -0.00      0.00 -71503.13

     hubbard stress (kbar)      0.00      0.00      0.00
                                0.00      0.00      0.00
                                0.00      0.00      0.00

     DFT-D   stress (kbar)      0.00      0.00      0.00
                                0.00      0.00      0.00
                                0.00      0.00      0.00

     XDM     stress (kbar)      0.00      0.00      0.00
                                0.00      0.00      0.00
                                0.00      0.00      0.00

     dft-nl  stress (kbar)      0.00      0.00      0.00
                                0.00      0.00      0.00
                                0.00      0.00      0.00

     TS-vdW  stress (kbar)      0.00      0.00      0.00
                                0.00      0.00      0.00
                                0.00      0.00      0.00

     MDB     stress (kbar)      0.00      0.00      0.00
                                0.00      0.00      0.00
                                0.00      0.00      0.00

     3D-RISM stress (kbar)      0.00      0.00      0.00
                                0.00      0.00      0.00
                                0.00      0.00      0.00


     Writing all to output data dir ./temp_cubic/aiida.save/ :
     XML data file, charge density, pseudopotentials, collected wavefunctions

     init_run     :    162.17s CPU      7.02s WALL (       1 calls)
     electrons    :   5035.81s CPU    213.34s WALL (       1 calls)
     forces       :     50.52s CPU      2.16s WALL (       1 calls)
     stress       :     34.08s CPU      1.72s WALL (       1 calls)

     Called by init_run:
     wfcinit      :    156.64s CPU      6.55s WALL (       1 calls)
     wfcinit:atom :      1.26s CPU      0.11s WALL (      84 calls)
     wfcinit:wfcr :    150.97s CPU      6.29s WALL (      84 calls)
     potinit      :      2.12s CPU      0.11s WALL (       1 calls)
     hinit0       :      1.64s CPU      0.25s WALL (       1 calls)

     Called by electrons:
     c_bands      :   4338.89s CPU    183.20s WALL (       9 calls)
     sum_band     :    678.36s CPU     29.07s WALL (       9 calls)
     v_of_rho     :      3.64s CPU      0.15s WALL (      10 calls)
     v_h          :      0.99s CPU      0.04s WALL (      10 calls)
     v_xc         :      2.90s CPU      0.13s WALL (      12 calls)
     newd         :      8.14s CPU      0.60s WALL (      10 calls)
     PAW_pot      :      8.54s CPU      0.36s WALL (      10 calls)
     mix_rho      :      0.48s CPU      0.05s WALL (       9 calls)

     Called by c_bands:
     init_us_2    :     45.51s CPU      2.00s WALL (    1764 calls)
     cegterg      :   4224.35s CPU    178.47s WALL (     756 calls)

     Called by sum_band:
     sum_band:wei :      0.29s CPU      0.02s WALL (       9 calls)
     sum_band:loo :    673.58s CPU     28.46s WALL (       9 calls)
     sum_band:buf :      0.04s CPU      0.03s WALL (     756 calls)
     sum_band:ini :     19.56s CPU      0.82s WALL (     756 calls)
     sum_band:cal :     16.36s CPU      0.58s WALL (     756 calls)
     sum_band:bec :     31.71s CPU      1.26s WALL (     756 calls)
     addusdens    :      3.80s CPU      0.53s WALL (       9 calls)
                                        0.00s GPU  (       9 calls)
     addusd:skk   :      0.02s CPU      0.00s WALL (      18 calls)
                                        0.00s GPU  (      18 calls)

     Called by *egterg:
     cdiaghg      :     17.98s CPU      0.72s WALL (    2454 calls)
     cegterg:over :     45.08s CPU      1.95s WALL (    1698 calls)
     cegterg:upda :     75.33s CPU      3.29s WALL (    1698 calls)
     cegterg:last :     85.07s CPU      2.90s WALL (    1511 calls)
     h_psi        :   3871.64s CPU    163.59s WALL (    2538 calls)
     s_psi        :     32.65s CPU      1.55s WALL (    2538 calls)
     g_psi        :     67.58s CPU      3.08s WALL (    1698 calls)

     Called by h_psi:
     h_psi:calbec :     37.56s CPU      1.48s WALL (    2538 calls)
     vloc_psi     :   3691.82s CPU    155.97s WALL (    2538 calls)
     add_vuspsi   :     37.44s CPU      1.53s WALL (    2538 calls)

     General routines
     calbec       :     60.46s CPU      2.32s WALL (    3714 calls)
     fft          :      0.96s CPU      0.07s WALL (     153 calls)
     ffts         :      0.23s CPU      0.00s WALL (      19 calls)
     fftw         :    302.20s CPU     13.03s WALL (   74728 calls)
     interpolate  :      0.01s CPU      0.01s WALL (      10 calls)

     Parallel routines

     PAW routines
     PAW_pot      :      8.54s CPU      0.36s WALL (      10 calls)
     PAW_symme    :      0.00s CPU      0.00s WALL (      19 calls)

     PWSCF        :      1h28m CPU   3m47.43s WALL


   This run was terminated on:  23:13:59   7Jun2024            

=------------------------------------------------------------------------------=
   JOB DONE.
=------------------------------------------------------------------------------=
