
     Program PWSCF v.7.3.1 starts on  8Jun2024 at 17:52:19 

     This program is part of the open-source Quantum ESPRESSO suite
     for quantum simulation of materials; please cite
         "P. Giannozzi et al., J. Phys.:Condens. Matter 21 395502 (2009);
         "P. Giannozzi et al., J. Phys.:Condens. Matter 29 465901 (2017);
         "P. Giannozzi et al., J. Chem. Phys. 152 154105 (2020);
          URL http://www.quantum-espresso.org", 
     in publications or presentations arising from this work. More details at
     http://www.quantum-espresso.org/quote

     Parallel version (MPI & OpenMP), running on      24 processor cores
     Number of MPI processes:                 1
     Threads/MPI process:                    24

     MPI processes distributed on     1 nodes
     4556 MiB available memory on the printing compute node when the environment starts

     Waiting for input...
     Reading input from standard input

     Current dimensions of program PWSCF are:
     Max number of different atomic species (ntypx) = 10
     Max number of k-points (npk) =  40000
     Max angular momentum in pseudopotentials (lmaxx) =  4
     file O.pbe-n-kjpaw_psl.0.1.UPF: wavefunction(s)  2P renormalized
     Found identity + (  0.0000  0.0000  0.3333) symmetry
     This is a supercell, fractional translations are disabled
     Message from routine setup:
     using ibrav=0 with symmetry is DISCOURAGED, use correct ibrav instead

     Subspace diagonalization in iterative solution of the eigenvalue problem:
     a serial algorithm will be used


     G-vector sticks info
     --------------------
     sticks:   dense  smooth     PW     G-vecs:    dense   smooth      PW
     Sum        7417    3705   1033               480129   169797   24573

     Using Slab Decomposition



     bravais-lattice index     =            0
     lattice parameter (alat)  =      15.2606  a.u.
     unit-cell volume          =    3553.9897 (a.u.)^3
     number of atoms/cell      =           54
     number of atomic types    =            2
     number of electrons       =       702.00
     number of Kohn-Sham states=          421
     kinetic-energy cutoff     =      50.0000  Ry
     charge density cutoff     =     400.0000  Ry
     scf convergence threshold =      1.0E-08
     mixing beta               =       0.4000
     number of iterations used =            8  plain     mixing
     Exchange-correlation= SLA  PW   PBE  PBE
                           (   1   4   3   4   0   0   0)

     celldm(1)=  15.260616  celldm(2)=   0.000000  celldm(3)=   0.000000
     celldm(4)=   0.000000  celldm(5)=   0.000000  celldm(6)=   0.000000

     crystal axes: (cart. coord. in units of alat)
               a(1) = (   1.000000   0.000000   0.000000 )  
               a(2) = (   0.000000   1.000000   0.000000 )  
               a(3) = (   0.000000   0.000000   1.000000 )  

     reciprocal axes: (cart. coord. in units 2 pi/alat)
               b(1) = (  1.000000  0.000000  0.000000 )  
               b(2) = (  0.000000  1.000000  0.000000 )  
               b(3) = (  0.000000  0.000000  1.000000 )  


     PseudoPot. # 1 for O  read from file:
     ../SSSP_1.3.0_PBE_efficiency/O.pbe-n-kjpaw_psl.0.1.UPF
     MD5 check sum: 0234752ac141de4415c5fc33072bef88
     Pseudo is Projector augmented-wave + core cor, Zval =  6.0
     Generated using "atomic" code by A. Dal Corso  v.5.0.99 svn rev. 10869
     Shape of augmentation charge: BESSEL
     Using radial grid of 1095 points,  4 beta functions with: 
                l(1) =   0
                l(2) =   0
                l(3) =   1
                l(4) =   1
     Q(r) pseudized with 0 coefficients 


     PseudoPot. # 2 for Zn read from file:
     ../SSSP_1.3.0_PBE_efficiency/Zn_pbe_v1.uspp.F.UPF
     MD5 check sum: df62231357ef9e81f77b2b3087fa5675
     Pseudo is Ultrasoft, Zval = 20.0
     Generated by new atomic code, or converted to UPF format
     Using radial grid of  943 points,  6 beta functions with: 
                l(1) =   0
                l(2) =   0
                l(3) =   1
                l(4) =   1
                l(5) =   2
                l(6) =   2
     Q(r) pseudized with  8 coefficients,  rinner =    1.100   1.100   1.100
                                                       1.100   1.100

     atomic species   valence    mass     pseudopotential
     O                 6.00    15.99940     O ( 1.00)
     Zn               20.00    65.38000     Zn( 1.00)

     48 Sym. Ops., with inversion, found


                                    s                        frac. trans.

      isym =  1     identity                                     

 cryst.   s( 1) = (     1          0          0      )
                  (     0          1          0      )
                  (     0          0          1      )

 cart.    s( 1) = (  1.0000000  0.0000000  0.0000000 )
                  (  0.0000000  1.0000000  0.0000000 )
                  (  0.0000000  0.0000000  1.0000000 )


      isym =  2     180 deg rotation - cart. axis [0,0,1]        

 cryst.   s( 2) = (    -1          0          0      )
                  (     0         -1          0      )
                  (     0          0          1      )

 cart.    s( 2) = ( -1.0000000  0.0000000  0.0000000 )
                  (  0.0000000 -1.0000000  0.0000000 )
                  (  0.0000000  0.0000000  1.0000000 )


      isym =  3     180 deg rotation - cart. axis [0,1,0]        

 cryst.   s( 3) = (    -1          0          0      )
                  (     0          1          0      )
                  (     0          0         -1      )

 cart.    s( 3) = ( -1.0000000  0.0000000  0.0000000 )
                  (  0.0000000  1.0000000  0.0000000 )
                  (  0.0000000  0.0000000 -1.0000000 )


      isym =  4     180 deg rotation - cart. axis [1,0,0]        

 cryst.   s( 4) = (     1          0          0      )
                  (     0         -1          0      )
                  (     0          0         -1      )

 cart.    s( 4) = (  1.0000000  0.0000000  0.0000000 )
                  (  0.0000000 -1.0000000  0.0000000 )
                  (  0.0000000  0.0000000 -1.0000000 )


      isym =  5     180 deg rotation - cart. axis [1,1,0]        

 cryst.   s( 5) = (     0          1          0      )
                  (     1          0          0      )
                  (     0          0         -1      )

 cart.    s( 5) = (  0.0000000  1.0000000  0.0000000 )
                  (  1.0000000  0.0000000  0.0000000 )
                  (  0.0000000  0.0000000 -1.0000000 )


      isym =  6     180 deg rotation - cart. axis [1,-1,0]       

 cryst.   s( 6) = (     0         -1          0      )
                  (    -1          0          0      )
                  (     0          0         -1      )

 cart.    s( 6) = (  0.0000000 -1.0000000  0.0000000 )
                  ( -1.0000000  0.0000000  0.0000000 )
                  (  0.0000000  0.0000000 -1.0000000 )


      isym =  7      90 deg rotation - cart. axis [0,0,-1]       

 cryst.   s( 7) = (     0         -1          0      )
                  (     1          0          0      )
                  (     0          0          1      )

 cart.    s( 7) = (  0.0000000  1.0000000  0.0000000 )
                  ( -1.0000000  0.0000000  0.0000000 )
                  (  0.0000000  0.0000000  1.0000000 )


      isym =  8      90 deg rotation - cart. axis [0,0,1]        

 cryst.   s( 8) = (     0          1          0      )
                  (    -1          0          0      )
                  (     0          0          1      )

 cart.    s( 8) = (  0.0000000 -1.0000000  0.0000000 )
                  (  1.0000000  0.0000000  0.0000000 )
                  (  0.0000000  0.0000000  1.0000000 )


      isym =  9     180 deg rotation - cart. axis [1,0,1]        

 cryst.   s( 9) = (     0          0          1      )
                  (     0         -1          0      )
                  (     1          0          0      )

 cart.    s( 9) = (  0.0000000  0.0000000  1.0000000 )
                  (  0.0000000 -1.0000000  0.0000000 )
                  (  1.0000000  0.0000000  0.0000000 )


      isym = 10     180 deg rotation - cart. axis [-1,0,1]       

 cryst.   s(10) = (     0          0         -1      )
                  (     0         -1          0      )
                  (    -1          0          0      )

 cart.    s(10) = (  0.0000000  0.0000000 -1.0000000 )
                  (  0.0000000 -1.0000000  0.0000000 )
                  ( -1.0000000  0.0000000  0.0000000 )


      isym = 11      90 deg rotation - cart. axis [0,1,0]        

 cryst.   s(11) = (     0          0         -1      )
                  (     0          1          0      )
                  (     1          0          0      )

 cart.    s(11) = (  0.0000000  0.0000000  1.0000000 )
                  (  0.0000000  1.0000000  0.0000000 )
                  ( -1.0000000  0.0000000  0.0000000 )


      isym = 12      90 deg rotation - cart. axis [0,-1,0]       

 cryst.   s(12) = (     0          0          1      )
                  (     0          1          0      )
                  (    -1          0          0      )

 cart.    s(12) = (  0.0000000  0.0000000 -1.0000000 )
                  (  0.0000000  1.0000000  0.0000000 )
                  (  1.0000000  0.0000000  0.0000000 )


      isym = 13     180 deg rotation - cart. axis [0,1,1]        

 cryst.   s(13) = (    -1          0          0      )
                  (     0          0          1      )
                  (     0          1          0      )

 cart.    s(13) = ( -1.0000000  0.0000000  0.0000000 )
                  (  0.0000000  0.0000000  1.0000000 )
                  (  0.0000000  1.0000000  0.0000000 )


      isym = 14     180 deg rotation - cart. axis [0,1,-1]       

 cryst.   s(14) = (    -1          0          0      )
                  (     0          0         -1      )
                  (     0         -1          0      )

 cart.    s(14) = ( -1.0000000  0.0000000  0.0000000 )
                  (  0.0000000  0.0000000 -1.0000000 )
                  (  0.0000000 -1.0000000  0.0000000 )


      isym = 15      90 deg rotation - cart. axis [-1,0,0]       

 cryst.   s(15) = (     1          0          0      )
                  (     0          0         -1      )
                  (     0          1          0      )

 cart.    s(15) = (  1.0000000  0.0000000  0.0000000 )
                  (  0.0000000  0.0000000  1.0000000 )
                  (  0.0000000 -1.0000000  0.0000000 )


      isym = 16      90 deg rotation - cart. axis [1,0,0]        

 cryst.   s(16) = (     1          0          0      )
                  (     0          0          1      )
                  (     0         -1          0      )

 cart.    s(16) = (  1.0000000  0.0000000  0.0000000 )
                  (  0.0000000  0.0000000 -1.0000000 )
                  (  0.0000000  1.0000000  0.0000000 )


      isym = 17     120 deg rotation - cart. axis [-1,-1,-1]     

 cryst.   s(17) = (     0          0          1      )
                  (     1          0          0      )
                  (     0          1          0      )

 cart.    s(17) = (  0.0000000  1.0000000  0.0000000 )
                  (  0.0000000  0.0000000  1.0000000 )
                  (  1.0000000  0.0000000  0.0000000 )


      isym = 18     120 deg rotation - cart. axis [-1,1,1]       

 cryst.   s(18) = (     0          0         -1      )
                  (    -1          0          0      )
                  (     0          1          0      )

 cart.    s(18) = (  0.0000000 -1.0000000  0.0000000 )
                  (  0.0000000  0.0000000  1.0000000 )
                  ( -1.0000000  0.0000000  0.0000000 )


      isym = 19     120 deg rotation - cart. axis [1,1,-1]       

 cryst.   s(19) = (     0          0         -1      )
                  (     1          0          0      )
                  (     0         -1          0      )

 cart.    s(19) = (  0.0000000  1.0000000  0.0000000 )
                  (  0.0000000  0.0000000 -1.0000000 )
                  ( -1.0000000  0.0000000  0.0000000 )


      isym = 20     120 deg rotation - cart. axis [1,-1,1]       

 cryst.   s(20) = (     0          0          1      )
                  (    -1          0          0      )
                  (     0         -1          0      )

 cart.    s(20) = (  0.0000000 -1.0000000  0.0000000 )
                  (  0.0000000  0.0000000 -1.0000000 )
                  (  1.0000000  0.0000000  0.0000000 )


      isym = 21     120 deg rotation - cart. axis [1,1,1]        

 cryst.   s(21) = (     0          1          0      )
                  (     0          0          1      )
                  (     1          0          0      )

 cart.    s(21) = (  0.0000000  0.0000000  1.0000000 )
                  (  1.0000000  0.0000000  0.0000000 )
                  (  0.0000000  1.0000000  0.0000000 )


      isym = 22     120 deg rotation - cart. axis [-1,1,-1]      

 cryst.   s(22) = (     0         -1          0      )
                  (     0          0         -1      )
                  (     1          0          0      )

 cart.    s(22) = (  0.0000000  0.0000000  1.0000000 )
                  ( -1.0000000  0.0000000  0.0000000 )
                  (  0.0000000 -1.0000000  0.0000000 )


      isym = 23     120 deg rotation - cart. axis [1,-1,-1]      

 cryst.   s(23) = (     0         -1          0      )
                  (     0          0          1      )
                  (    -1          0          0      )

 cart.    s(23) = (  0.0000000  0.0000000 -1.0000000 )
                  ( -1.0000000  0.0000000  0.0000000 )
                  (  0.0000000  1.0000000  0.0000000 )


      isym = 24     120 deg rotation - cart. axis [-1,-1,1]      

 cryst.   s(24) = (     0          1          0      )
                  (     0          0         -1      )
                  (    -1          0          0      )

 cart.    s(24) = (  0.0000000  0.0000000 -1.0000000 )
                  (  1.0000000  0.0000000  0.0000000 )
                  (  0.0000000 -1.0000000  0.0000000 )


      isym = 25     inversion                                    

 cryst.   s(25) = (    -1          0          0      )
                  (     0         -1          0      )
                  (     0          0         -1      )

 cart.    s(25) = ( -1.0000000  0.0000000  0.0000000 )
                  (  0.0000000 -1.0000000  0.0000000 )
                  (  0.0000000  0.0000000 -1.0000000 )


      isym = 26     inv. 180 deg rotation - cart. axis [0,0,1]   

 cryst.   s(26) = (     1          0          0      )
                  (     0          1          0      )
                  (     0          0         -1      )

 cart.    s(26) = (  1.0000000  0.0000000  0.0000000 )
                  (  0.0000000  1.0000000  0.0000000 )
                  (  0.0000000  0.0000000 -1.0000000 )


      isym = 27     inv. 180 deg rotation - cart. axis [0,1,0]   

 cryst.   s(27) = (     1          0          0      )
                  (     0         -1          0      )
                  (     0          0          1      )

 cart.    s(27) = (  1.0000000  0.0000000  0.0000000 )
                  (  0.0000000 -1.0000000  0.0000000 )
                  (  0.0000000  0.0000000  1.0000000 )


      isym = 28     inv. 180 deg rotation - cart. axis [1,0,0]   

 cryst.   s(28) = (    -1          0          0      )
                  (     0          1          0      )
                  (     0          0          1      )

 cart.    s(28) = ( -1.0000000  0.0000000  0.0000000 )
                  (  0.0000000  1.0000000  0.0000000 )
                  (  0.0000000  0.0000000  1.0000000 )


      isym = 29     inv. 180 deg rotation - cart. axis [1,1,0]   

 cryst.   s(29) = (     0         -1          0      )
                  (    -1          0          0      )
                  (     0          0          1      )

 cart.    s(29) = (  0.0000000 -1.0000000  0.0000000 )
                  ( -1.0000000  0.0000000  0.0000000 )
                  (  0.0000000  0.0000000  1.0000000 )


      isym = 30     inv. 180 deg rotation - cart. axis [1,-1,0]  

 cryst.   s(30) = (     0          1          0      )
                  (     1          0          0      )
                  (     0          0          1      )

 cart.    s(30) = (  0.0000000  1.0000000  0.0000000 )
                  (  1.0000000  0.0000000  0.0000000 )
                  (  0.0000000  0.0000000  1.0000000 )


      isym = 31     inv.  90 deg rotation - cart. axis [0,0,-1]  

 cryst.   s(31) = (     0          1          0      )
                  (    -1          0          0      )
                  (     0          0         -1      )

 cart.    s(31) = (  0.0000000 -1.0000000  0.0000000 )
                  (  1.0000000  0.0000000  0.0000000 )
                  (  0.0000000  0.0000000 -1.0000000 )


      isym = 32     inv.  90 deg rotation - cart. axis [0,0,1]   

 cryst.   s(32) = (     0         -1          0      )
                  (     1          0          0      )
                  (     0          0         -1      )

 cart.    s(32) = (  0.0000000  1.0000000  0.0000000 )
                  ( -1.0000000  0.0000000  0.0000000 )
                  (  0.0000000  0.0000000 -1.0000000 )


      isym = 33     inv. 180 deg rotation - cart. axis [1,0,1]   

 cryst.   s(33) = (     0          0         -1      )
                  (     0          1          0      )
                  (    -1          0          0      )

 cart.    s(33) = (  0.0000000  0.0000000 -1.0000000 )
                  (  0.0000000  1.0000000  0.0000000 )
                  ( -1.0000000  0.0000000  0.0000000 )


      isym = 34     inv. 180 deg rotation - cart. axis [-1,0,1]  

 cryst.   s(34) = (     0          0          1      )
                  (     0          1          0      )
                  (     1          0          0      )

 cart.    s(34) = (  0.0000000  0.0000000  1.0000000 )
                  (  0.0000000  1.0000000  0.0000000 )
                  (  1.0000000  0.0000000  0.0000000 )


      isym = 35     inv.  90 deg rotation - cart. axis [0,1,0]   

 cryst.   s(35) = (     0          0          1      )
                  (     0         -1          0      )
                  (    -1          0          0      )

 cart.    s(35) = (  0.0000000  0.0000000 -1.0000000 )
                  (  0.0000000 -1.0000000  0.0000000 )
                  (  1.0000000  0.0000000  0.0000000 )


      isym = 36     inv.  90 deg rotation - cart. axis [0,-1,0]  

 cryst.   s(36) = (     0          0         -1      )
                  (     0         -1          0      )
                  (     1          0          0      )

 cart.    s(36) = (  0.0000000  0.0000000  1.0000000 )
                  (  0.0000000 -1.0000000  0.0000000 )
                  ( -1.0000000  0.0000000  0.0000000 )


      isym = 37     inv. 180 deg rotation - cart. axis [0,1,1]   

 cryst.   s(37) = (     1          0          0      )
                  (     0          0         -1      )
                  (     0         -1          0      )

 cart.    s(37) = (  1.0000000  0.0000000  0.0000000 )
                  (  0.0000000  0.0000000 -1.0000000 )
                  (  0.0000000 -1.0000000  0.0000000 )


      isym = 38     inv. 180 deg rotation - cart. axis [0,1,-1]  

 cryst.   s(38) = (     1          0          0      )
                  (     0          0          1      )
                  (     0          1          0      )

 cart.    s(38) = (  1.0000000  0.0000000  0.0000000 )
                  (  0.0000000  0.0000000  1.0000000 )
                  (  0.0000000  1.0000000  0.0000000 )


      isym = 39     inv.  90 deg rotation - cart. axis [-1,0,0]  

 cryst.   s(39) = (    -1          0          0      )
                  (     0          0          1      )
                  (     0         -1          0      )

 cart.    s(39) = ( -1.0000000  0.0000000  0.0000000 )
                  (  0.0000000  0.0000000 -1.0000000 )
                  (  0.0000000  1.0000000  0.0000000 )


      isym = 40     inv.  90 deg rotation - cart. axis [1,0,0]   

 cryst.   s(40) = (    -1          0          0      )
                  (     0          0         -1      )
                  (     0          1          0      )

 cart.    s(40) = ( -1.0000000  0.0000000  0.0000000 )
                  (  0.0000000  0.0000000  1.0000000 )
                  (  0.0000000 -1.0000000  0.0000000 )


      isym = 41     inv. 120 deg rotation - cart. axis [-1,-1,-1]

 cryst.   s(41) = (     0          0         -1      )
                  (    -1          0          0      )
                  (     0         -1          0      )

 cart.    s(41) = (  0.0000000 -1.0000000  0.0000000 )
                  (  0.0000000  0.0000000 -1.0000000 )
                  ( -1.0000000  0.0000000  0.0000000 )


      isym = 42     inv. 120 deg rotation - cart. axis [-1,1,1]  

 cryst.   s(42) = (     0          0          1      )
                  (     1          0          0      )
                  (     0         -1          0      )

 cart.    s(42) = (  0.0000000  1.0000000  0.0000000 )
                  (  0.0000000  0.0000000 -1.0000000 )
                  (  1.0000000  0.0000000  0.0000000 )


      isym = 43     inv. 120 deg rotation - cart. axis [1,1,-1]  

 cryst.   s(43) = (     0          0          1      )
                  (    -1          0          0      )
                  (     0          1          0      )

 cart.    s(43) = (  0.0000000 -1.0000000  0.0000000 )
                  (  0.0000000  0.0000000  1.0000000 )
                  (  1.0000000  0.0000000  0.0000000 )


      isym = 44     inv. 120 deg rotation - cart. axis [1,-1,1]  

 cryst.   s(44) = (     0          0         -1      )
                  (     1          0          0      )
                  (     0          1          0      )

 cart.    s(44) = (  0.0000000  1.0000000  0.0000000 )
                  (  0.0000000  0.0000000  1.0000000 )
                  ( -1.0000000  0.0000000  0.0000000 )


      isym = 45     inv. 120 deg rotation - cart. axis [1,1,1]   

 cryst.   s(45) = (     0         -1          0      )
                  (     0          0         -1      )
                  (    -1          0          0      )

 cart.    s(45) = (  0.0000000  0.0000000 -1.0000000 )
                  ( -1.0000000  0.0000000  0.0000000 )
                  (  0.0000000 -1.0000000  0.0000000 )


      isym = 46     inv. 120 deg rotation - cart. axis [-1,1,-1] 

 cryst.   s(46) = (     0          1          0      )
                  (     0          0          1      )
                  (    -1          0          0      )

 cart.    s(46) = (  0.0000000  0.0000000 -1.0000000 )
                  (  1.0000000  0.0000000  0.0000000 )
                  (  0.0000000  1.0000000  0.0000000 )


      isym = 47     inv. 120 deg rotation - cart. axis [1,-1,-1] 

 cryst.   s(47) = (     0          1          0      )
                  (     0          0         -1      )
                  (     1          0          0      )

 cart.    s(47) = (  0.0000000  0.0000000  1.0000000 )
                  (  1.0000000  0.0000000  0.0000000 )
                  (  0.0000000 -1.0000000  0.0000000 )


      isym = 48     inv. 120 deg rotation - cart. axis [-1,-1,1] 

 cryst.   s(48) = (     0         -1          0      )
                  (     0          0          1      )
                  (     1          0          0      )

 cart.    s(48) = (  0.0000000  0.0000000  1.0000000 )
                  ( -1.0000000  0.0000000  0.0000000 )
                  (  0.0000000  1.0000000  0.0000000 )


   Cartesian axes

     site n.     atom                  positions (alat units)
         1        Zn     tau(   1) = (   0.0000000   0.0000000   0.0000000  )
         2        O      tau(   2) = (   0.1666700   0.1666700   0.1666700  )
         3        Zn     tau(   3) = (   0.0000000   0.0000000   0.3333300  )
         4        O      tau(   4) = (   0.1666700   0.1666700   0.5000000  )
         5        Zn     tau(   5) = (   0.0000000   0.0000000   0.6666700  )
         6        O      tau(   6) = (   0.1666700   0.1666700   0.8333300  )
         7        Zn     tau(   7) = (   0.0000000   0.3333300   0.0000000  )
         8        O      tau(   8) = (   0.1666700   0.5000000   0.1666700  )
         9        Zn     tau(   9) = (   0.0000000   0.3333300   0.3333300  )
        10        O      tau(  10) = (   0.1666700   0.5000000   0.5000000  )
        11        Zn     tau(  11) = (   0.0000000   0.3333300   0.6666700  )
        12        O      tau(  12) = (   0.1666700   0.5000000   0.8333300  )
        13        Zn     tau(  13) = (   0.0000000   0.6666700   0.0000000  )
        14        O      tau(  14) = (   0.1666700   0.8333300   0.1666700  )
        15        Zn     tau(  15) = (   0.0000000   0.6666700   0.3333300  )
        16        O      tau(  16) = (   0.1666700   0.8333300   0.5000000  )
        17        Zn     tau(  17) = (   0.0000000   0.6666700   0.6666700  )
        18        O      tau(  18) = (   0.1666700   0.8333300   0.8333300  )
        19        Zn     tau(  19) = (   0.3333300   0.0000000   0.0000000  )
        20        O      tau(  20) = (   0.5000000   0.1666700   0.1666700  )
        21        Zn     tau(  21) = (   0.3333300   0.0000000   0.3333300  )
        22        O      tau(  22) = (   0.5000000   0.1666700   0.5000000  )
        23        Zn     tau(  23) = (   0.3333300   0.0000000   0.6666700  )
        24        O      tau(  24) = (   0.5000000   0.1666700   0.8333300  )
        25        Zn     tau(  25) = (   0.3333300   0.3333300   0.0000000  )
        26        O      tau(  26) = (   0.5000000   0.5000000   0.1666700  )
        27        Zn     tau(  27) = (   0.3333300   0.3333300   0.3333300  )
        28        O      tau(  28) = (   0.5000000   0.5000000   0.5000000  )
        29        Zn     tau(  29) = (   0.3333300   0.3333300   0.6666700  )
        30        O      tau(  30) = (   0.5000000   0.5000000   0.8333300  )
        31        Zn     tau(  31) = (   0.3333300   0.6666700   0.0000000  )
        32        O      tau(  32) = (   0.5000000   0.8333300   0.1666700  )
        33        Zn     tau(  33) = (   0.3333300   0.6666700   0.3333300  )
        34        O      tau(  34) = (   0.5000000   0.8333300   0.5000000  )
        35        Zn     tau(  35) = (   0.3333300   0.6666700   0.6666700  )
        36        O      tau(  36) = (   0.5000000   0.8333300   0.8333300  )
        37        Zn     tau(  37) = (   0.6666700   0.0000000   0.0000000  )
        38        O      tau(  38) = (   0.8333300   0.1666700   0.1666700  )
        39        Zn     tau(  39) = (   0.6666700   0.0000000   0.3333300  )
        40        O      tau(  40) = (   0.8333300   0.1666700   0.5000000  )
        41        Zn     tau(  41) = (   0.6666700   0.0000000   0.6666700  )
        42        O      tau(  42) = (   0.8333300   0.1666700   0.8333300  )
        43        Zn     tau(  43) = (   0.6666700   0.3333300   0.0000000  )
        44        O      tau(  44) = (   0.8333300   0.5000000   0.1666700  )
        45        Zn     tau(  45) = (   0.6666700   0.3333300   0.3333300  )
        46        O      tau(  46) = (   0.8333300   0.5000000   0.5000000  )
        47        Zn     tau(  47) = (   0.6666700   0.3333300   0.6666700  )
        48        O      tau(  48) = (   0.8333300   0.5000000   0.8333300  )
        49        Zn     tau(  49) = (   0.6666700   0.6666700   0.0000000  )
        50        O      tau(  50) = (   0.8333300   0.8333300   0.1666700  )
        51        Zn     tau(  51) = (   0.6666700   0.6666700   0.3333300  )
        52        O      tau(  52) = (   0.8333300   0.8333300   0.5000000  )
        53        Zn     tau(  53) = (   0.6666700   0.6666700   0.6666700  )
        54        O      tau(  54) = (   0.8333300   0.8333300   0.8333300  )

   Crystallographic axes

     site n.     atom                  positions (cryst. coord.)
         1        Zn     tau(   1) = (  0.0000000  0.0000000  0.0000000  )
         2        O      tau(   2) = (  0.1666700  0.1666700  0.1666700  )
         3        Zn     tau(   3) = (  0.0000000  0.0000000  0.3333300  )
         4        O      tau(   4) = (  0.1666700  0.1666700  0.5000000  )
         5        Zn     tau(   5) = (  0.0000000  0.0000000  0.6666700  )
         6        O      tau(   6) = (  0.1666700  0.1666700  0.8333300  )
         7        Zn     tau(   7) = (  0.0000000  0.3333300  0.0000000  )
         8        O      tau(   8) = (  0.1666700  0.5000000  0.1666700  )
         9        Zn     tau(   9) = (  0.0000000  0.3333300  0.3333300  )
        10        O      tau(  10) = (  0.1666700  0.5000000  0.5000000  )
        11        Zn     tau(  11) = (  0.0000000  0.3333300  0.6666700  )
        12        O      tau(  12) = (  0.1666700  0.5000000  0.8333300  )
        13        Zn     tau(  13) = (  0.0000000  0.6666700  0.0000000  )
        14        O      tau(  14) = (  0.1666700  0.8333300  0.1666700  )
        15        Zn     tau(  15) = (  0.0000000  0.6666700  0.3333300  )
        16        O      tau(  16) = (  0.1666700  0.8333300  0.5000000  )
        17        Zn     tau(  17) = (  0.0000000  0.6666700  0.6666700  )
        18        O      tau(  18) = (  0.1666700  0.8333300  0.8333300  )
        19        Zn     tau(  19) = (  0.3333300  0.0000000  0.0000000  )
        20        O      tau(  20) = (  0.5000000  0.1666700  0.1666700  )
        21        Zn     tau(  21) = (  0.3333300  0.0000000  0.3333300  )
        22        O      tau(  22) = (  0.5000000  0.1666700  0.5000000  )
        23        Zn     tau(  23) = (  0.3333300  0.0000000  0.6666700  )
        24        O      tau(  24) = (  0.5000000  0.1666700  0.8333300  )
        25        Zn     tau(  25) = (  0.3333300  0.3333300  0.0000000  )
        26        O      tau(  26) = (  0.5000000  0.5000000  0.1666700  )
        27        Zn     tau(  27) = (  0.3333300  0.3333300  0.3333300  )
        28        O      tau(  28) = (  0.5000000  0.5000000  0.5000000  )
        29        Zn     tau(  29) = (  0.3333300  0.3333300  0.6666700  )
        30        O      tau(  30) = (  0.5000000  0.5000000  0.8333300  )
        31        Zn     tau(  31) = (  0.3333300  0.6666700  0.0000000  )
        32        O      tau(  32) = (  0.5000000  0.8333300  0.1666700  )
        33        Zn     tau(  33) = (  0.3333300  0.6666700  0.3333300  )
        34        O      tau(  34) = (  0.5000000  0.8333300  0.5000000  )
        35        Zn     tau(  35) = (  0.3333300  0.6666700  0.6666700  )
        36        O      tau(  36) = (  0.5000000  0.8333300  0.8333300  )
        37        Zn     tau(  37) = (  0.6666700  0.0000000  0.0000000  )
        38        O      tau(  38) = (  0.8333300  0.1666700  0.1666700  )
        39        Zn     tau(  39) = (  0.6666700  0.0000000  0.3333300  )
        40        O      tau(  40) = (  0.8333300  0.1666700  0.5000000  )
        41        Zn     tau(  41) = (  0.6666700  0.0000000  0.6666700  )
        42        O      tau(  42) = (  0.8333300  0.1666700  0.8333300  )
        43        Zn     tau(  43) = (  0.6666700  0.3333300  0.0000000  )
        44        O      tau(  44) = (  0.8333300  0.5000000  0.1666700  )
        45        Zn     tau(  45) = (  0.6666700  0.3333300  0.3333300  )
        46        O      tau(  46) = (  0.8333300  0.5000000  0.5000000  )
        47        Zn     tau(  47) = (  0.6666700  0.3333300  0.6666700  )
        48        O      tau(  48) = (  0.8333300  0.5000000  0.8333300  )
        49        Zn     tau(  49) = (  0.6666700  0.6666700  0.0000000  )
        50        O      tau(  50) = (  0.8333300  0.8333300  0.1666700  )
        51        Zn     tau(  51) = (  0.6666700  0.6666700  0.3333300  )
        52        O      tau(  52) = (  0.8333300  0.8333300  0.5000000  )
        53        Zn     tau(  53) = (  0.6666700  0.6666700  0.6666700  )
        54        O      tau(  54) = (  0.8333300  0.8333300  0.8333300  )

     number of k points=    10  Marzari-Vanderbilt smearing, width (Ry)=  0.0147
                       cart. coord. in units 2pi/alat
        k(    1) = (   0.0000000   0.0000000   0.0000000), wk =   0.0312500
        k(    2) = (   0.0000000   0.0000000   0.2500000), wk =   0.1875000
        k(    3) = (   0.0000000   0.0000000  -0.5000000), wk =   0.0937500
        k(    4) = (   0.0000000   0.2500000   0.2500000), wk =   0.3750000
        k(    5) = (   0.0000000   0.2500000  -0.5000000), wk =   0.3750000
        k(    6) = (   0.0000000  -0.5000000  -0.5000000), wk =   0.0937500
        k(    7) = (   0.2500000   0.2500000   0.2500000), wk =   0.2500000
        k(    8) = (   0.2500000   0.2500000  -0.5000000), wk =   0.3750000
        k(    9) = (   0.2500000  -0.5000000  -0.5000000), wk =   0.1875000
        k(   10) = (  -0.5000000  -0.5000000  -0.5000000), wk =   0.0312500

                       cryst. coord.
        k(    1) = (   0.0000000   0.0000000   0.0000000), wk =   0.0312500
        k(    2) = (   0.0000000   0.0000000   0.2500000), wk =   0.1875000
        k(    3) = (   0.0000000   0.0000000  -0.5000000), wk =   0.0937500
        k(    4) = (   0.0000000   0.2500000   0.2500000), wk =   0.3750000
        k(    5) = (   0.0000000   0.2500000  -0.5000000), wk =   0.3750000
        k(    6) = (   0.0000000  -0.5000000  -0.5000000), wk =   0.0937500
        k(    7) = (   0.2500000   0.2500000   0.2500000), wk =   0.2500000
        k(    8) = (   0.2500000   0.2500000  -0.5000000), wk =   0.3750000
        k(    9) = (   0.2500000  -0.5000000  -0.5000000), wk =   0.1875000
        k(   10) = (  -0.5000000  -0.5000000  -0.5000000), wk =   0.0312500

     Dense  grid:   480129 G-vectors     FFT dimensions: ( 100, 100, 100)

     Smooth grid:   169797 G-vectors     FFT dimensions: (  72,  72,  72)

     Dynamical RAM for                 wfc:     136.31 MB

     Dynamical RAM for     wfc (w. buffer):    1499.41 MB

     Dynamical RAM for           str. fact:      14.65 MB

     Dynamical RAM for           local pot:       0.00 MB

     Dynamical RAM for          nlocal pot:     227.29 MB

     Dynamical RAM for                qrad:       3.21 MB

     Dynamical RAM for          rho,v,vnew:      44.87 MB

     Dynamical RAM for               rhoin:      14.96 MB

     Dynamical RAM for            rho*nmix:     117.22 MB

     Dynamical RAM for           G-vectors:      28.77 MB

     Dynamical RAM for          h,s,v(r/c):      32.45 MB

     Dynamical RAM for          <psi|beta>:       4.51 MB

     Dynamical RAM for                 psi:     272.62 MB

     Dynamical RAM for                hpsi:     272.62 MB

     Dynamical RAM for                spsi:     272.62 MB

     Dynamical RAM for      wfcinit/wfcrot:     302.05 MB

     Dynamical RAM for           addusdens:    1560.48 MB

     Dynamical RAM for          addusforce:    1945.21 MB

     Dynamical RAM for         addusstress:    1472.56 MB

     Estimated static dynamical RAM per process >       1.85 GB

     Estimated max dynamical RAM per process >       3.86 GB

     Check: negative core charge=   -0.000003

     Initial potential from superposition of free atoms

     starting charge     701.9962, renormalised to     702.0000
     Starting wfcs are  459 randomized atomic wfcs
     Checking if some PAW data can be deallocated... 

     total cpu time spent up to now is      497.1 secs

     Self-consistent Calculation

     iteration #  1     ecut=    50.00 Ry     beta= 0.40
     Davidson diagonalization with overlap

---- Real-time Memory Report at c_bands before calling an iterative solver
          2134 MiB given to the printing process from OS
             0 MiB allocation reported by mallinfo(arena+hblkhd)
          2776 MiB available memory on the node where the printing process lives
------------------
     ethr =  1.00E-02,  avg # of iterations =  2.6

     total cpu time spent up to now is     2045.2 secs

     WARNING: integrated charge=   702.00025553, expected=   702.00000000

     total energy              =  -13582.05060464 Ry
     estimated scf accuracy    <      12.67726182 Ry

     iteration #  2     ecut=    50.00 Ry     beta= 0.40
     Davidson diagonalization with overlap

---- Real-time Memory Report at c_bands before calling an iterative solver
          3544 MiB given to the printing process from OS
             0 MiB allocation reported by mallinfo(arena+hblkhd)
          2737 MiB available memory on the node where the printing process lives
------------------
     ethr =  1.81E-03,  avg # of iterations =  2.1
     Minimization algorithm failed to find Fermi energy: reverting to bisection
     Possible cause: smearing is larger than the electronic band-gap.

     total cpu time spent up to now is     3567.2 secs

     WARNING: integrated charge=   702.00018051, expected=   702.00000000

     total energy              =  -13585.52550431 Ry
     estimated scf accuracy    <       2.10948744 Ry

     iteration #  3     ecut=    50.00 Ry     beta= 0.40
