
     Program PWSCF v.7.3.1 starts on 12Jun2024 at 13:24:12 

     This program is part of the open-source Quantum ESPRESSO suite
     for quantum simulation of materials; please cite
         "P. Giannozzi et al., J. Phys.:Condens. Matter 21 395502 (2009);
         "P. Giannozzi et al., J. Phys.:Condens. Matter 29 465901 (2017);
         "P. Giannozzi et al., J. Chem. Phys. 152 154105 (2020);
          URL http://www.quantum-espresso.org", 
     in publications or presentations arising from this work. More details at
     http://www.quantum-espresso.org/quote

     Parallel version (MPI & OpenMP), running on      24 processor cores
     Number of MPI processes:                 1
     Threads/MPI process:                    24

     MPI processes distributed on     1 nodes
     5413 MiB available memory on the printing compute node when the environment starts

     Waiting for input...
     Reading input from standard input

     Current dimensions of program PWSCF are:
     Max number of different atomic species (ntypx) = 10
     Max number of k-points (npk) =  40000
     Max angular momentum in pseudopotentials (lmaxx) =  4
     file O.pbe-n-kjpaw_psl.0.1.UPF: wavefunction(s)  2P renormalized
     Message from routine setup:
     using ibrav=0 with symmetry is DISCOURAGED, use correct ibrav instead

     Subspace diagonalization in iterative solution of the eigenvalue problem:
     a serial algorithm will be used


     G-vector sticks info
     --------------------
     sticks:   dense  smooth     PW     G-vecs:    dense   smooth      PW
     Sum         421     213     69                 6355     2205     485

     Using Slab Decomposition



     bravais-lattice index     =            0
     lattice parameter (alat)  =       5.0869  a.u.
     unit-cell volume          =     131.6291 (a.u.)^3
     number of atoms/cell      =            2
     number of atomic types    =            2
     number of electrons       =        26.00
     number of Kohn-Sham states=           17
     kinetic-energy cutoff     =      25.0000  Ry
     charge density cutoff     =     200.0000  Ry
     scf convergence threshold =      1.0E-08
     mixing beta               =       0.4000
     number of iterations used =            8  plain     mixing
     Exchange-correlation= SLA  PW   PBE  PBE
                           (   1   4   3   4   0   0   0)

     celldm(1)=   5.086871  celldm(2)=   0.000000  celldm(3)=   0.000000
     celldm(4)=   0.000000  celldm(5)=   0.000000  celldm(6)=   0.000000

     crystal axes: (cart. coord. in units of alat)
               a(1) = (   1.000000   0.000000   0.000000 )  
               a(2) = (   0.000000   1.000000   0.000000 )  
               a(3) = (   0.000000   0.000000   1.000000 )  

     reciprocal axes: (cart. coord. in units 2 pi/alat)
               b(1) = (  1.000000  0.000000  0.000000 )  
               b(2) = (  0.000000  1.000000  0.000000 )  
               b(3) = (  0.000000  0.000000  1.000000 )  


     PseudoPot. # 1 for O  read from file:
     ../SSSP_1.3.0_PBE_efficiency/O.pbe-n-kjpaw_psl.0.1.UPF
     MD5 check sum: 0234752ac141de4415c5fc33072bef88
     Pseudo is Projector augmented-wave + core cor, Zval =  6.0
     Generated using "atomic" code by A. Dal Corso  v.5.0.99 svn rev. 10869
     Shape of augmentation charge: BESSEL
     Using radial grid of 1095 points,  4 beta functions with: 
                l(1) =   0
                l(2) =   0
                l(3) =   1
                l(4) =   1
     Q(r) pseudized with 0 coefficients 


     PseudoPot. # 2 for Zn read from file:
     ../SSSP_1.3.0_PBE_efficiency/Zn_pbe_v1.uspp.F.UPF
     MD5 check sum: df62231357ef9e81f77b2b3087fa5675
     Pseudo is Ultrasoft, Zval = 20.0
     Generated by new atomic code, or converted to UPF format
     Using radial grid of  943 points,  6 beta functions with: 
                l(1) =   0
                l(2) =   0
                l(3) =   1
                l(4) =   1
                l(5) =   2
                l(6) =   2
     Q(r) pseudized with  8 coefficients,  rinner =    1.100   1.100   1.100
                                                       1.100   1.100

     atomic species   valence    mass     pseudopotential
     O                 6.00    15.99940     O ( 1.00)
     Zn               20.00    65.38000     Zn( 1.00)

     48 Sym. Ops., with inversion, found


                                    s                        frac. trans.

      isym =  1     identity                                     

 cryst.   s( 1) = (     1          0          0      )
                  (     0          1          0      )
                  (     0          0          1      )

 cart.    s( 1) = (  1.0000000  0.0000000  0.0000000 )
                  (  0.0000000  1.0000000  0.0000000 )
                  (  0.0000000  0.0000000  1.0000000 )


      isym =  2     180 deg rotation - cart. axis [0,0,1]        

 cryst.   s( 2) = (    -1          0          0      )
                  (     0         -1          0      )
                  (     0          0          1      )

 cart.    s( 2) = ( -1.0000000  0.0000000  0.0000000 )
                  (  0.0000000 -1.0000000  0.0000000 )
                  (  0.0000000  0.0000000  1.0000000 )


      isym =  3     180 deg rotation - cart. axis [0,1,0]        

 cryst.   s( 3) = (    -1          0          0      )
                  (     0          1          0      )
                  (     0          0         -1      )

 cart.    s( 3) = ( -1.0000000  0.0000000  0.0000000 )
                  (  0.0000000  1.0000000  0.0000000 )
                  (  0.0000000  0.0000000 -1.0000000 )


      isym =  4     180 deg rotation - cart. axis [1,0,0]        

 cryst.   s( 4) = (     1          0          0      )
                  (     0         -1          0      )
                  (     0          0         -1      )

 cart.    s( 4) = (  1.0000000  0.0000000  0.0000000 )
                  (  0.0000000 -1.0000000  0.0000000 )
                  (  0.0000000  0.0000000 -1.0000000 )


      isym =  5     180 deg rotation - cart. axis [1,1,0]        

 cryst.   s( 5) = (     0          1          0      )
                  (     1          0          0      )
                  (     0          0         -1      )

 cart.    s( 5) = (  0.0000000  1.0000000  0.0000000 )
                  (  1.0000000  0.0000000  0.0000000 )
                  (  0.0000000  0.0000000 -1.0000000 )


      isym =  6     180 deg rotation - cart. axis [1,-1,0]       

 cryst.   s( 6) = (     0         -1          0      )
                  (    -1          0          0      )
                  (     0          0         -1      )

 cart.    s( 6) = (  0.0000000 -1.0000000  0.0000000 )
                  ( -1.0000000  0.0000000  0.0000000 )
                  (  0.0000000  0.0000000 -1.0000000 )


      isym =  7      90 deg rotation - cart. axis [0,0,-1]       

 cryst.   s( 7) = (     0         -1          0      )
                  (     1          0          0      )
                  (     0          0          1      )

 cart.    s( 7) = (  0.0000000  1.0000000  0.0000000 )
                  ( -1.0000000  0.0000000  0.0000000 )
                  (  0.0000000  0.0000000  1.0000000 )


      isym =  8      90 deg rotation - cart. axis [0,0,1]        

 cryst.   s( 8) = (     0          1          0      )
                  (    -1          0          0      )
                  (     0          0          1      )

 cart.    s( 8) = (  0.0000000 -1.0000000  0.0000000 )
                  (  1.0000000  0.0000000  0.0000000 )
                  (  0.0000000  0.0000000  1.0000000 )


      isym =  9     180 deg rotation - cart. axis [1,0,1]        

 cryst.   s( 9) = (     0          0          1      )
                  (     0         -1          0      )
                  (     1          0          0      )

 cart.    s( 9) = (  0.0000000  0.0000000  1.0000000 )
                  (  0.0000000 -1.0000000  0.0000000 )
                  (  1.0000000  0.0000000  0.0000000 )


      isym = 10     180 deg rotation - cart. axis [-1,0,1]       

 cryst.   s(10) = (     0          0         -1      )
                  (     0         -1          0      )
                  (    -1          0          0      )

 cart.    s(10) = (  0.0000000  0.0000000 -1.0000000 )
                  (  0.0000000 -1.0000000  0.0000000 )
                  ( -1.0000000  0.0000000  0.0000000 )


      isym = 11      90 deg rotation - cart. axis [0,1,0]        

 cryst.   s(11) = (     0          0         -1      )
                  (     0          1          0      )
                  (     1          0          0      )

 cart.    s(11) = (  0.0000000  0.0000000  1.0000000 )
                  (  0.0000000  1.0000000  0.0000000 )
                  ( -1.0000000  0.0000000  0.0000000 )


      isym = 12      90 deg rotation - cart. axis [0,-1,0]       

 cryst.   s(12) = (     0          0          1      )
                  (     0          1          0      )
                  (    -1          0          0      )

 cart.    s(12) = (  0.0000000  0.0000000 -1.0000000 )
                  (  0.0000000  1.0000000  0.0000000 )
                  (  1.0000000  0.0000000  0.0000000 )


      isym = 13     180 deg rotation - cart. axis [0,1,1]        

 cryst.   s(13) = (    -1          0          0      )
                  (     0          0          1      )
                  (     0          1          0      )

 cart.    s(13) = ( -1.0000000  0.0000000  0.0000000 )
                  (  0.0000000  0.0000000  1.0000000 )
                  (  0.0000000  1.0000000  0.0000000 )


      isym = 14     180 deg rotation - cart. axis [0,1,-1]       

 cryst.   s(14) = (    -1          0          0      )
                  (     0          0         -1      )
                  (     0         -1          0      )

 cart.    s(14) = ( -1.0000000  0.0000000  0.0000000 )
                  (  0.0000000  0.0000000 -1.0000000 )
                  (  0.0000000 -1.0000000  0.0000000 )


      isym = 15      90 deg rotation - cart. axis [-1,0,0]       

 cryst.   s(15) = (     1          0          0      )
                  (     0          0         -1      )
                  (     0          1          0      )

 cart.    s(15) = (  1.0000000  0.0000000  0.0000000 )
                  (  0.0000000  0.0000000  1.0000000 )
                  (  0.0000000 -1.0000000  0.0000000 )


      isym = 16      90 deg rotation - cart. axis [1,0,0]        

 cryst.   s(16) = (     1          0          0      )
                  (     0          0          1      )
                  (     0         -1          0      )

 cart.    s(16) = (  1.0000000  0.0000000  0.0000000 )
                  (  0.0000000  0.0000000 -1.0000000 )
                  (  0.0000000  1.0000000  0.0000000 )


      isym = 17     120 deg rotation - cart. axis [-1,-1,-1]     

 cryst.   s(17) = (     0          0          1      )
                  (     1          0          0      )
                  (     0          1          0      )

 cart.    s(17) = (  0.0000000  1.0000000  0.0000000 )
                  (  0.0000000  0.0000000  1.0000000 )
                  (  1.0000000  0.0000000  0.0000000 )


      isym = 18     120 deg rotation - cart. axis [-1,1,1]       

 cryst.   s(18) = (     0          0         -1      )
                  (    -1          0          0      )
                  (     0          1          0      )

 cart.    s(18) = (  0.0000000 -1.0000000  0.0000000 )
                  (  0.0000000  0.0000000  1.0000000 )
                  ( -1.0000000  0.0000000  0.0000000 )


      isym = 19     120 deg rotation - cart. axis [1,1,-1]       

 cryst.   s(19) = (     0          0         -1      )
                  (     1          0          0      )
                  (     0         -1          0      )

 cart.    s(19) = (  0.0000000  1.0000000  0.0000000 )
                  (  0.0000000  0.0000000 -1.0000000 )
                  ( -1.0000000  0.0000000  0.0000000 )


      isym = 20     120 deg rotation - cart. axis [1,-1,1]       

 cryst.   s(20) = (     0          0          1      )
                  (    -1          0          0      )
                  (     0         -1          0      )

 cart.    s(20) = (  0.0000000 -1.0000000  0.0000000 )
                  (  0.0000000  0.0000000 -1.0000000 )
                  (  1.0000000  0.0000000  0.0000000 )


      isym = 21     120 deg rotation - cart. axis [1,1,1]        

 cryst.   s(21) = (     0          1          0      )
                  (     0          0          1      )
                  (     1          0          0      )

 cart.    s(21) = (  0.0000000  0.0000000  1.0000000 )
                  (  1.0000000  0.0000000  0.0000000 )
                  (  0.0000000  1.0000000  0.0000000 )


      isym = 22     120 deg rotation - cart. axis [-1,1,-1]      

 cryst.   s(22) = (     0         -1          0      )
                  (     0          0         -1      )
                  (     1          0          0      )

 cart.    s(22) = (  0.0000000  0.0000000  1.0000000 )
                  ( -1.0000000  0.0000000  0.0000000 )
                  (  0.0000000 -1.0000000  0.0000000 )


      isym = 23     120 deg rotation - cart. axis [1,-1,-1]      

 cryst.   s(23) = (     0         -1          0      )
                  (     0          0          1      )
                  (    -1          0          0      )

 cart.    s(23) = (  0.0000000  0.0000000 -1.0000000 )
                  ( -1.0000000  0.0000000  0.0000000 )
                  (  0.0000000  1.0000000  0.0000000 )


      isym = 24     120 deg rotation - cart. axis [-1,-1,1]      

 cryst.   s(24) = (     0          1          0      )
                  (     0          0         -1      )
                  (    -1          0          0      )

 cart.    s(24) = (  0.0000000  0.0000000 -1.0000000 )
                  (  1.0000000  0.0000000  0.0000000 )
                  (  0.0000000 -1.0000000  0.0000000 )


      isym = 25     inversion                                    

 cryst.   s(25) = (    -1          0          0      )
                  (     0         -1          0      )
                  (     0          0         -1      )

 cart.    s(25) = ( -1.0000000  0.0000000  0.0000000 )
                  (  0.0000000 -1.0000000  0.0000000 )
                  (  0.0000000  0.0000000 -1.0000000 )


      isym = 26     inv. 180 deg rotation - cart. axis [0,0,1]   

 cryst.   s(26) = (     1          0          0      )
                  (     0          1          0      )
                  (     0          0         -1      )

 cart.    s(26) = (  1.0000000  0.0000000  0.0000000 )
                  (  0.0000000  1.0000000  0.0000000 )
                  (  0.0000000  0.0000000 -1.0000000 )


      isym = 27     inv. 180 deg rotation - cart. axis [0,1,0]   

 cryst.   s(27) = (     1          0          0      )
                  (     0         -1          0      )
                  (     0          0          1      )

 cart.    s(27) = (  1.0000000  0.0000000  0.0000000 )
                  (  0.0000000 -1.0000000  0.0000000 )
                  (  0.0000000  0.0000000  1.0000000 )


      isym = 28     inv. 180 deg rotation - cart. axis [1,0,0]   

 cryst.   s(28) = (    -1          0          0      )
                  (     0          1          0      )
                  (     0          0          1      )

 cart.    s(28) = ( -1.0000000  0.0000000  0.0000000 )
                  (  0.0000000  1.0000000  0.0000000 )
                  (  0.0000000  0.0000000  1.0000000 )


      isym = 29     inv. 180 deg rotation - cart. axis [1,1,0]   

 cryst.   s(29) = (     0         -1          0      )
                  (    -1          0          0      )
                  (     0          0          1      )

 cart.    s(29) = (  0.0000000 -1.0000000  0.0000000 )
                  ( -1.0000000  0.0000000  0.0000000 )
                  (  0.0000000  0.0000000  1.0000000 )


      isym = 30     inv. 180 deg rotation - cart. axis [1,-1,0]  

 cryst.   s(30) = (     0          1          0      )
                  (     1          0          0      )
                  (     0          0          1      )

 cart.    s(30) = (  0.0000000  1.0000000  0.0000000 )
                  (  1.0000000  0.0000000  0.0000000 )
                  (  0.0000000  0.0000000  1.0000000 )


      isym = 31     inv.  90 deg rotation - cart. axis [0,0,-1]  

 cryst.   s(31) = (     0          1          0      )
                  (    -1          0          0      )
                  (     0          0         -1      )

 cart.    s(31) = (  0.0000000 -1.0000000  0.0000000 )
                  (  1.0000000  0.0000000  0.0000000 )
                  (  0.0000000  0.0000000 -1.0000000 )


      isym = 32     inv.  90 deg rotation - cart. axis [0,0,1]   

 cryst.   s(32) = (     0         -1          0      )
                  (     1          0          0      )
                  (     0          0         -1      )

 cart.    s(32) = (  0.0000000  1.0000000  0.0000000 )
                  ( -1.0000000  0.0000000  0.0000000 )
                  (  0.0000000  0.0000000 -1.0000000 )


      isym = 33     inv. 180 deg rotation - cart. axis [1,0,1]   

 cryst.   s(33) = (     0          0         -1      )
                  (     0          1          0      )
                  (    -1          0          0      )

 cart.    s(33) = (  0.0000000  0.0000000 -1.0000000 )
                  (  0.0000000  1.0000000  0.0000000 )
                  ( -1.0000000  0.0000000  0.0000000 )


      isym = 34     inv. 180 deg rotation - cart. axis [-1,0,1]  

 cryst.   s(34) = (     0          0          1      )
                  (     0          1          0      )
                  (     1          0          0      )

 cart.    s(34) = (  0.0000000  0.0000000  1.0000000 )
                  (  0.0000000  1.0000000  0.0000000 )
                  (  1.0000000  0.0000000  0.0000000 )


      isym = 35     inv.  90 deg rotation - cart. axis [0,1,0]   

 cryst.   s(35) = (     0          0          1      )
                  (     0         -1          0      )
                  (    -1          0          0      )

 cart.    s(35) = (  0.0000000  0.0000000 -1.0000000 )
                  (  0.0000000 -1.0000000  0.0000000 )
                  (  1.0000000  0.0000000  0.0000000 )


      isym = 36     inv.  90 deg rotation - cart. axis [0,-1,0]  

 cryst.   s(36) = (     0          0         -1      )
                  (     0         -1          0      )
                  (     1          0          0      )

 cart.    s(36) = (  0.0000000  0.0000000  1.0000000 )
                  (  0.0000000 -1.0000000  0.0000000 )
                  ( -1.0000000  0.0000000  0.0000000 )


      isym = 37     inv. 180 deg rotation - cart. axis [0,1,1]   

 cryst.   s(37) = (     1          0          0      )
                  (     0          0         -1      )
                  (     0         -1          0      )

 cart.    s(37) = (  1.0000000  0.0000000  0.0000000 )
                  (  0.0000000  0.0000000 -1.0000000 )
                  (  0.0000000 -1.0000000  0.0000000 )


      isym = 38     inv. 180 deg rotation - cart. axis [0,1,-1]  

 cryst.   s(38) = (     1          0          0      )
                  (     0          0          1      )
                  (     0          1          0      )

 cart.    s(38) = (  1.0000000  0.0000000  0.0000000 )
                  (  0.0000000  0.0000000  1.0000000 )
                  (  0.0000000  1.0000000  0.0000000 )


      isym = 39     inv.  90 deg rotation - cart. axis [-1,0,0]  

 cryst.   s(39) = (    -1          0          0      )
                  (     0          0          1      )
                  (     0         -1          0      )

 cart.    s(39) = ( -1.0000000  0.0000000  0.0000000 )
                  (  0.0000000  0.0000000 -1.0000000 )
                  (  0.0000000  1.0000000  0.0000000 )


      isym = 40     inv.  90 deg rotation - cart. axis [1,0,0]   

 cryst.   s(40) = (    -1          0          0      )
                  (     0          0         -1      )
                  (     0          1          0      )

 cart.    s(40) = ( -1.0000000  0.0000000  0.0000000 )
                  (  0.0000000  0.0000000  1.0000000 )
                  (  0.0000000 -1.0000000  0.0000000 )


      isym = 41     inv. 120 deg rotation - cart. axis [-1,-1,-1]

 cryst.   s(41) = (     0          0         -1      )
                  (    -1          0          0      )
                  (     0         -1          0      )

 cart.    s(41) = (  0.0000000 -1.0000000  0.0000000 )
                  (  0.0000000  0.0000000 -1.0000000 )
                  ( -1.0000000  0.0000000  0.0000000 )


      isym = 42     inv. 120 deg rotation - cart. axis [-1,1,1]  

 cryst.   s(42) = (     0          0          1      )
                  (     1          0          0      )
                  (     0         -1          0      )

 cart.    s(42) = (  0.0000000  1.0000000  0.0000000 )
                  (  0.0000000  0.0000000 -1.0000000 )
                  (  1.0000000  0.0000000  0.0000000 )


      isym = 43     inv. 120 deg rotation - cart. axis [1,1,-1]  

 cryst.   s(43) = (     0          0          1      )
                  (    -1          0          0      )
                  (     0          1          0      )

 cart.    s(43) = (  0.0000000 -1.0000000  0.0000000 )
                  (  0.0000000  0.0000000  1.0000000 )
                  (  1.0000000  0.0000000  0.0000000 )


      isym = 44     inv. 120 deg rotation - cart. axis [1,-1,1]  

 cryst.   s(44) = (     0          0         -1      )
                  (     1          0          0      )
                  (     0          1          0      )

 cart.    s(44) = (  0.0000000  1.0000000  0.0000000 )
                  (  0.0000000  0.0000000  1.0000000 )
                  ( -1.0000000  0.0000000  0.0000000 )


      isym = 45     inv. 120 deg rotation - cart. axis [1,1,1]   

 cryst.   s(45) = (     0         -1          0      )
                  (     0          0         -1      )
                  (    -1          0          0      )

 cart.    s(45) = (  0.0000000  0.0000000 -1.0000000 )
                  ( -1.0000000  0.0000000  0.0000000 )
                  (  0.0000000 -1.0000000  0.0000000 )


      isym = 46     inv. 120 deg rotation - cart. axis [-1,1,-1] 

 cryst.   s(46) = (     0          1          0      )
                  (     0          0          1      )
                  (    -1          0          0      )

 cart.    s(46) = (  0.0000000  0.0000000 -1.0000000 )
                  (  1.0000000  0.0000000  0.0000000 )
                  (  0.0000000  1.0000000  0.0000000 )


      isym = 47     inv. 120 deg rotation - cart. axis [1,-1,-1] 

 cryst.   s(47) = (     0          1          0      )
                  (     0          0         -1      )
                  (     1          0          0      )

 cart.    s(47) = (  0.0000000  0.0000000  1.0000000 )
                  (  1.0000000  0.0000000  0.0000000 )
                  (  0.0000000 -1.0000000  0.0000000 )


      isym = 48     inv. 120 deg rotation - cart. axis [-1,-1,1] 

 cryst.   s(48) = (     0         -1          0      )
                  (     0          0          1      )
                  (     1          0          0      )

 cart.    s(48) = (  0.0000000  0.0000000  1.0000000 )
                  ( -1.0000000  0.0000000  0.0000000 )
                  (  0.0000000  1.0000000  0.0000000 )


   Cartesian axes

     site n.     atom                  positions (alat units)
         1        Zn     tau(   1) = (   0.0000000   0.0000000   0.0000000  )
         2        O      tau(   2) = (   0.5000000   0.5000000   0.5000000  )

   Crystallographic axes

     site n.     atom                  positions (cryst. coord.)
         1        Zn     tau(   1) = (  0.0000000  0.0000000  0.0000000  )
         2        O      tau(   2) = (  0.5000000  0.5000000  0.5000000  )

     number of k points=    84  Marzari-Vanderbilt smearing, width (Ry)=  0.0073
                       cart. coord. in units 2pi/alat
        k(    1) = (   0.0000000   0.0000000   0.0000000), wk =   0.0011574
        k(    2) = (   0.0000000   0.0000000   0.0833333), wk =   0.0069444
        k(    3) = (   0.0000000   0.0000000   0.1666667), wk =   0.0069444
        k(    4) = (   0.0000000   0.0000000   0.2500000), wk =   0.0069444
        k(    5) = (   0.0000000   0.0000000   0.3333333), wk =   0.0069444
        k(    6) = (   0.0000000   0.0000000   0.4166667), wk =   0.0069444
        k(    7) = (   0.0000000   0.0000000  -0.5000000), wk =   0.0034722
        k(    8) = (   0.0000000   0.0833333   0.0833333), wk =   0.0138889
        k(    9) = (   0.0000000   0.0833333   0.1666667), wk =   0.0277778
        k(   10) = (   0.0000000   0.0833333   0.2500000), wk =   0.0277778
        k(   11) = (   0.0000000   0.0833333   0.3333333), wk =   0.0277778
        k(   12) = (   0.0000000   0.0833333   0.4166667), wk =   0.0277778
        k(   13) = (   0.0000000   0.0833333  -0.5000000), wk =   0.0138889
        k(   14) = (   0.0000000   0.1666667   0.1666667), wk =   0.0138889
        k(   15) = (   0.0000000   0.1666667   0.2500000), wk =   0.0277778
        k(   16) = (   0.0000000   0.1666667   0.3333333), wk =   0.0277778
        k(   17) = (   0.0000000   0.1666667   0.4166667), wk =   0.0277778
        k(   18) = (   0.0000000   0.1666667  -0.5000000), wk =   0.0138889
        k(   19) = (   0.0000000   0.2500000   0.2500000), wk =   0.0138889
        k(   20) = (   0.0000000   0.2500000   0.3333333), wk =   0.0277778
        k(   21) = (   0.0000000   0.2500000   0.4166667), wk =   0.0277778
        k(   22) = (   0.0000000   0.2500000  -0.5000000), wk =   0.0138889
        k(   23) = (   0.0000000   0.3333333   0.3333333), wk =   0.0138889
        k(   24) = (   0.0000000   0.3333333   0.4166667), wk =   0.0277778
        k(   25) = (   0.0000000   0.3333333  -0.5000000), wk =   0.0138889
        k(   26) = (   0.0000000   0.4166667   0.4166667), wk =   0.0138889
        k(   27) = (   0.0000000   0.4166667  -0.5000000), wk =   0.0138889
        k(   28) = (   0.0000000  -0.5000000  -0.5000000), wk =   0.0034722
        k(   29) = (   0.0833333   0.0833333   0.0833333), wk =   0.0092593
        k(   30) = (   0.0833333   0.0833333   0.1666667), wk =   0.0277778
        k(   31) = (   0.0833333   0.0833333   0.2500000), wk =   0.0277778
        k(   32) = (   0.0833333   0.0833333   0.3333333), wk =   0.0277778
        k(   33) = (   0.0833333   0.0833333   0.4166667), wk =   0.0277778
        k(   34) = (   0.0833333   0.0833333  -0.5000000), wk =   0.0138889
        k(   35) = (   0.0833333   0.1666667   0.1666667), wk =   0.0277778
        k(   36) = (   0.0833333   0.1666667   0.2500000), wk =   0.0555556
        k(   37) = (   0.0833333   0.1666667   0.3333333), wk =   0.0555556
        k(   38) = (   0.0833333   0.1666667   0.4166667), wk =   0.0555556
        k(   39) = (   0.0833333   0.1666667  -0.5000000), wk =   0.0277778
        k(   40) = (   0.0833333   0.2500000   0.2500000), wk =   0.0277778
        k(   41) = (   0.0833333   0.2500000   0.3333333), wk =   0.0555556
        k(   42) = (   0.0833333   0.2500000   0.4166667), wk =   0.0555556
        k(   43) = (   0.0833333   0.2500000  -0.5000000), wk =   0.0277778
        k(   44) = (   0.0833333   0.3333333   0.3333333), wk =   0.0277778
        k(   45) = (   0.0833333   0.3333333   0.4166667), wk =   0.0555556
        k(   46) = (   0.0833333   0.3333333  -0.5000000), wk =   0.0277778
        k(   47) = (   0.0833333   0.4166667   0.4166667), wk =   0.0277778
        k(   48) = (   0.0833333   0.4166667  -0.5000000), wk =   0.0277778
        k(   49) = (   0.0833333  -0.5000000  -0.5000000), wk =   0.0069444
        k(   50) = (   0.1666667   0.1666667   0.1666667), wk =   0.0092593
        k(   51) = (   0.1666667   0.1666667   0.2500000), wk =   0.0277778
        k(   52) = (   0.1666667   0.1666667   0.3333333), wk =   0.0277778
        k(   53) = (   0.1666667   0.1666667   0.4166667), wk =   0.0277778
        k(   54) = (   0.1666667   0.1666667  -0.5000000), wk =   0.0138889
        k(   55) = (   0.1666667   0.2500000   0.2500000), wk =   0.0277778
        k(   56) = (   0.1666667   0.2500000   0.3333333), wk =   0.0555556
        k(   57) = (   0.1666667   0.2500000   0.4166667), wk =   0.0555556
        k(   58) = (   0.1666667   0.2500000  -0.5000000), wk =   0.0277778
        k(   59) = (   0.1666667   0.3333333   0.3333333), wk =   0.0277778
        k(   60) = (   0.1666667   0.3333333   0.4166667), wk =   0.0555556
        k(   61) = (   0.1666667   0.3333333  -0.5000000), wk =   0.0277778
        k(   62) = (   0.1666667   0.4166667   0.4166667), wk =   0.0277778
        k(   63) = (   0.1666667   0.4166667  -0.5000000), wk =   0.0277778
        k(   64) = (   0.1666667  -0.5000000  -0.5000000), wk =   0.0069444
        k(   65) = (   0.2500000   0.2500000   0.2500000), wk =   0.0092593
        k(   66) = (   0.2500000   0.2500000   0.3333333), wk =   0.0277778
        k(   67) = (   0.2500000   0.2500000   0.4166667), wk =   0.0277778
        k(   68) = (   0.2500000   0.2500000  -0.5000000), wk =   0.0138889
        k(   69) = (   0.2500000   0.3333333   0.3333333), wk =   0.0277778
        k(   70) = (   0.2500000   0.3333333   0.4166667), wk =   0.0555556
        k(   71) = (   0.2500000   0.3333333  -0.5000000), wk =   0.0277778
        k(   72) = (   0.2500000   0.4166667   0.4166667), wk =   0.0277778
        k(   73) = (   0.2500000   0.4166667  -0.5000000), wk =   0.0277778
        k(   74) = (   0.2500000  -0.5000000  -0.5000000), wk =   0.0069444
        k(   75) = (   0.3333333   0.3333333   0.3333333), wk =   0.0092593
        k(   76) = (   0.3333333   0.3333333   0.4166667), wk =   0.0277778
        k(   77) = (   0.3333333   0.3333333  -0.5000000), wk =   0.0138889
        k(   78) = (   0.3333333   0.4166667   0.4166667), wk =   0.0277778
        k(   79) = (   0.3333333   0.4166667  -0.5000000), wk =   0.0277778
        k(   80) = (   0.3333333  -0.5000000  -0.5000000), wk =   0.0069444
        k(   81) = (   0.4166667   0.4166667   0.4166667), wk =   0.0092593
        k(   82) = (   0.4166667   0.4166667  -0.5000000), wk =   0.0138889
        k(   83) = (   0.4166667  -0.5000000  -0.5000000), wk =   0.0069444
        k(   84) = (  -0.5000000  -0.5000000  -0.5000000), wk =   0.0011574

                       cryst. coord.
        k(    1) = (   0.0000000   0.0000000   0.0000000), wk =   0.0011574
        k(    2) = (   0.0000000   0.0000000   0.0833333), wk =   0.0069444
        k(    3) = (   0.0000000   0.0000000   0.1666667), wk =   0.0069444
        k(    4) = (   0.0000000   0.0000000   0.2500000), wk =   0.0069444
        k(    5) = (   0.0000000   0.0000000   0.3333333), wk =   0.0069444
        k(    6) = (   0.0000000   0.0000000   0.4166667), wk =   0.0069444
        k(    7) = (   0.0000000   0.0000000  -0.5000000), wk =   0.0034722
        k(    8) = (   0.0000000   0.0833333   0.0833333), wk =   0.0138889
        k(    9) = (   0.0000000   0.0833333   0.1666667), wk =   0.0277778
        k(   10) = (   0.0000000   0.0833333   0.2500000), wk =   0.0277778
        k(   11) = (   0.0000000   0.0833333   0.3333333), wk =   0.0277778
        k(   12) = (   0.0000000   0.0833333   0.4166667), wk =   0.0277778
        k(   13) = (   0.0000000   0.0833333  -0.5000000), wk =   0.0138889
        k(   14) = (   0.0000000   0.1666667   0.1666667), wk =   0.0138889
        k(   15) = (   0.0000000   0.1666667   0.2500000), wk =   0.0277778
        k(   16) = (   0.0000000   0.1666667   0.3333333), wk =   0.0277778
        k(   17) = (   0.0000000   0.1666667   0.4166667), wk =   0.0277778
        k(   18) = (   0.0000000   0.1666667  -0.5000000), wk =   0.0138889
        k(   19) = (   0.0000000   0.2500000   0.2500000), wk =   0.0138889
        k(   20) = (   0.0000000   0.2500000   0.3333333), wk =   0.0277778
        k(   21) = (   0.0000000   0.2500000   0.4166667), wk =   0.0277778
        k(   22) = (   0.0000000   0.2500000  -0.5000000), wk =   0.0138889
        k(   23) = (   0.0000000   0.3333333   0.3333333), wk =   0.0138889
        k(   24) = (   0.0000000   0.3333333   0.4166667), wk =   0.0277778
        k(   25) = (   0.0000000   0.3333333  -0.5000000), wk =   0.0138889
        k(   26) = (   0.0000000   0.4166667   0.4166667), wk =   0.0138889
        k(   27) = (   0.0000000   0.4166667  -0.5000000), wk =   0.0138889
        k(   28) = (   0.0000000  -0.5000000  -0.5000000), wk =   0.0034722
        k(   29) = (   0.0833333   0.0833333   0.0833333), wk =   0.0092593
        k(   30) = (   0.0833333   0.0833333   0.1666667), wk =   0.0277778
        k(   31) = (   0.0833333   0.0833333   0.2500000), wk =   0.0277778
        k(   32) = (   0.0833333   0.0833333   0.3333333), wk =   0.0277778
        k(   33) = (   0.0833333   0.0833333   0.4166667), wk =   0.0277778
        k(   34) = (   0.0833333   0.0833333  -0.5000000), wk =   0.0138889
        k(   35) = (   0.0833333   0.1666667   0.1666667), wk =   0.0277778
        k(   36) = (   0.0833333   0.1666667   0.2500000), wk =   0.0555556
        k(   37) = (   0.0833333   0.1666667   0.3333333), wk =   0.0555556
        k(   38) = (   0.0833333   0.1666667   0.4166667), wk =   0.0555556
        k(   39) = (   0.0833333   0.1666667  -0.5000000), wk =   0.0277778
        k(   40) = (   0.0833333   0.2500000   0.2500000), wk =   0.0277778
        k(   41) = (   0.0833333   0.2500000   0.3333333), wk =   0.0555556
        k(   42) = (   0.0833333   0.2500000   0.4166667), wk =   0.0555556
        k(   43) = (   0.0833333   0.2500000  -0.5000000), wk =   0.0277778
        k(   44) = (   0.0833333   0.3333333   0.3333333), wk =   0.0277778
        k(   45) = (   0.0833333   0.3333333   0.4166667), wk =   0.0555556
        k(   46) = (   0.0833333   0.3333333  -0.5000000), wk =   0.0277778
        k(   47) = (   0.0833333   0.4166667   0.4166667), wk =   0.0277778
        k(   48) = (   0.0833333   0.4166667  -0.5000000), wk =   0.0277778
        k(   49) = (   0.0833333  -0.5000000  -0.5000000), wk =   0.0069444
        k(   50) = (   0.1666667   0.1666667   0.1666667), wk =   0.0092593
        k(   51) = (   0.1666667   0.1666667   0.2500000), wk =   0.0277778
        k(   52) = (   0.1666667   0.1666667   0.3333333), wk =   0.0277778
        k(   53) = (   0.1666667   0.1666667   0.4166667), wk =   0.0277778
        k(   54) = (   0.1666667   0.1666667  -0.5000000), wk =   0.0138889
        k(   55) = (   0.1666667   0.2500000   0.2500000), wk =   0.0277778
        k(   56) = (   0.1666667   0.2500000   0.3333333), wk =   0.0555556
        k(   57) = (   0.1666667   0.2500000   0.4166667), wk =   0.0555556
        k(   58) = (   0.1666667   0.2500000  -0.5000000), wk =   0.0277778
        k(   59) = (   0.1666667   0.3333333   0.3333333), wk =   0.0277778
        k(   60) = (   0.1666667   0.3333333   0.4166667), wk =   0.0555556
        k(   61) = (   0.1666667   0.3333333  -0.5000000), wk =   0.0277778
        k(   62) = (   0.1666667   0.4166667   0.4166667), wk =   0.0277778
        k(   63) = (   0.1666667   0.4166667  -0.5000000), wk =   0.0277778
        k(   64) = (   0.1666667  -0.5000000  -0.5000000), wk =   0.0069444
        k(   65) = (   0.2500000   0.2500000   0.2500000), wk =   0.0092593
        k(   66) = (   0.2500000   0.2500000   0.3333333), wk =   0.0277778
        k(   67) = (   0.2500000   0.2500000   0.4166667), wk =   0.0277778
        k(   68) = (   0.2500000   0.2500000  -0.5000000), wk =   0.0138889
        k(   69) = (   0.2500000   0.3333333   0.3333333), wk =   0.0277778
        k(   70) = (   0.2500000   0.3333333   0.4166667), wk =   0.0555556
        k(   71) = (   0.2500000   0.3333333  -0.5000000), wk =   0.0277778
        k(   72) = (   0.2500000   0.4166667   0.4166667), wk =   0.0277778
        k(   73) = (   0.2500000   0.4166667  -0.5000000), wk =   0.0277778
        k(   74) = (   0.2500000  -0.5000000  -0.5000000), wk =   0.0069444
        k(   75) = (   0.3333333   0.3333333   0.3333333), wk =   0.0092593
        k(   76) = (   0.3333333   0.3333333   0.4166667), wk =   0.0277778
        k(   77) = (   0.3333333   0.3333333  -0.5000000), wk =   0.0138889
        k(   78) = (   0.3333333   0.4166667   0.4166667), wk =   0.0277778
        k(   79) = (   0.3333333   0.4166667  -0.5000000), wk =   0.0277778
        k(   80) = (   0.3333333  -0.5000000  -0.5000000), wk =   0.0069444
        k(   81) = (   0.4166667   0.4166667   0.4166667), wk =   0.0092593
        k(   82) = (   0.4166667   0.4166667  -0.5000000), wk =   0.0138889
        k(   83) = (   0.4166667  -0.5000000  -0.5000000), wk =   0.0069444
        k(   84) = (  -0.5000000  -0.5000000  -0.5000000), wk =   0.0011574

     Dense  grid:     6355 G-vectors     FFT dimensions: (  24,  24,  24)

     Smooth grid:     2205 G-vectors     FFT dimensions: (  18,  18,  18)

     Dynamical RAM for                 wfc:       0.07 MB

     Dynamical RAM for     wfc (w. buffer):       6.13 MB

     Dynamical RAM for           str. fact:       0.19 MB

     Dynamical RAM for           local pot:       0.00 MB

     Dynamical RAM for          nlocal pot:       0.11 MB

     Dynamical RAM for                qrad:       2.27 MB

     Dynamical RAM for          rho,v,vnew:       0.61 MB

     Dynamical RAM for               rhoin:       0.20 MB

     Dynamical RAM for            rho*nmix:       1.55 MB

     Dynamical RAM for           G-vectors:       0.38 MB

     Dynamical RAM for          h,s,v(r/c):       0.05 MB

     Dynamical RAM for          <psi|beta>:       0.01 MB

     Dynamical RAM for                 psi:       0.14 MB

     Dynamical RAM for                hpsi:       0.14 MB

     Dynamical RAM for                spsi:       0.14 MB

     Dynamical RAM for      wfcinit/wfcrot:       0.15 MB

     Dynamical RAM for           addusdens:      18.13 MB

     Dynamical RAM for          addusforce:      18.19 MB

     Dynamical RAM for         addusstress:      19.49 MB

     Estimated static dynamical RAM per process >      10.71 MB

     Estimated max dynamical RAM per process >      31.76 MB

     Check: negative core charge=   -0.000026

     Initial potential from superposition of free atoms

     starting charge      25.9999, renormalised to      26.0000
     Starting wfcs are   17 randomized atomic wfcs
     Checking if some PAW data can be deallocated... 

     total cpu time spent up to now is        1.2 secs

     Self-consistent Calculation

     iteration #  1     ecut=    25.00 Ry     beta= 0.40
     Davidson diagonalization with overlap

---- Real-time Memory Report at c_bands before calling an iterative solver
            56 MiB given to the printing process from OS
             0 MiB allocation reported by mallinfo(arena+hblkhd)
          5390 MiB available memory on the node where the printing process lives
------------------
     ethr =  1.00E-02,  avg # of iterations =  2.8

     total cpu time spent up to now is        4.1 secs

     WARNING: integrated charge=    26.00033546, expected=    26.00000000

     total energy              =    -502.47562253 Ry
     estimated scf accuracy    <       0.37322564 Ry

     iteration #  2     ecut=    25.00 Ry     beta= 0.40
     Davidson diagonalization with overlap

---- Real-time Memory Report at c_bands before calling an iterative solver
            67 MiB given to the printing process from OS
             0 MiB allocation reported by mallinfo(arena+hblkhd)
          5367 MiB available memory on the node where the printing process lives
------------------
     ethr =  1.44E-03,  avg # of iterations =  2.2

     total cpu time spent up to now is        8.2 secs

     WARNING: integrated charge=    26.00023414, expected=    26.00000000

     total energy              =    -502.57313106 Ry
     estimated scf accuracy    <       0.05666166 Ry

     iteration #  3     ecut=    25.00 Ry     beta= 0.40
     Davidson diagonalization with overlap

---- Real-time Memory Report at c_bands before calling an iterative solver
            67 MiB given to the printing process from OS
             0 MiB allocation reported by mallinfo(arena+hblkhd)
          5365 MiB available memory on the node where the printing process lives
------------------
     ethr =  2.18E-04,  avg # of iterations =  2.2

     total cpu time spent up to now is       13.7 secs

     WARNING: integrated charge=    26.00000803, expected=    26.00000000

     total energy              =    -502.58064252 Ry
     estimated scf accuracy    <       0.00670589 Ry

     iteration #  4     ecut=    25.00 Ry     beta= 0.40
     Davidson diagonalization with overlap

---- Real-time Memory Report at c_bands before calling an iterative solver
            67 MiB given to the printing process from OS
             0 MiB allocation reported by mallinfo(arena+hblkhd)
          5365 MiB available memory on the node where the printing process lives
------------------
     ethr =  2.58E-05,  avg # of iterations =  2.2

     total cpu time spent up to now is       16.8 secs

     WARNING: integrated charge=    26.00001475, expected=    26.00000000

     total energy              =    -502.58096995 Ry
     estimated scf accuracy    <       0.00012763 Ry

     iteration #  5     ecut=    25.00 Ry     beta= 0.40
     Davidson diagonalization with overlap

---- Real-time Memory Report at c_bands before calling an iterative solver
            68 MiB given to the printing process from OS
             0 MiB allocation reported by mallinfo(arena+hblkhd)
          5370 MiB available memory on the node where the printing process lives
------------------
     ethr =  4.91E-07,  avg # of iterations =  2.3

     total cpu time spent up to now is       18.5 secs

     WARNING: integrated charge=    26.00000909, expected=    26.00000000

     total energy              =    -502.58099811 Ry
     estimated scf accuracy    <       0.00000702 Ry

     iteration #  6     ecut=    25.00 Ry     beta= 0.40
     Davidson diagonalization with overlap

---- Real-time Memory Report at c_bands before calling an iterative solver
            68 MiB given to the printing process from OS
             0 MiB allocation reported by mallinfo(arena+hblkhd)
          5367 MiB available memory on the node where the printing process lives
------------------
     ethr =  2.70E-08,  avg # of iterations =  2.0

     total cpu time spent up to now is       22.0 secs

     total energy              =    -502.58100049 Ry
     estimated scf accuracy    <       0.00000638 Ry

     iteration #  7     ecut=    25.00 Ry     beta= 0.40
     Davidson diagonalization with overlap

---- Real-time Memory Report at c_bands before calling an iterative solver
            69 MiB given to the printing process from OS
             0 MiB allocation reported by mallinfo(arena+hblkhd)
          5313 MiB available memory on the node where the printing process lives
------------------
     ethr =  2.46E-08,  avg # of iterations =  2.0

     total cpu time spent up to now is       24.2 secs

     total energy              =    -502.58100169 Ry
     estimated scf accuracy    <       0.00000022 Ry

     iteration #  8     ecut=    25.00 Ry     beta= 0.40
     Davidson diagonalization with overlap

---- Real-time Memory Report at c_bands before calling an iterative solver
            69 MiB given to the printing process from OS
             0 MiB allocation reported by mallinfo(arena+hblkhd)
          5310 MiB available memory on the node where the printing process lives
------------------
     ethr =  8.34E-10,  avg # of iterations =  1.9

     total cpu time spent up to now is       26.1 secs

     total energy              =    -502.58100171 Ry
     estimated scf accuracy    <       0.00000003 Ry

     iteration #  9     ecut=    25.00 Ry     beta= 0.40
     Davidson diagonalization with overlap

---- Real-time Memory Report at c_bands before calling an iterative solver
            69 MiB given to the printing process from OS
             0 MiB allocation reported by mallinfo(arena+hblkhd)
          5309 MiB available memory on the node where the printing process lives
------------------
     ethr =  1.18E-10,  avg # of iterations =  2.1

     total cpu time spent up to now is       28.3 secs

     End of self-consistent calculation

          k = 0.0000 0.0000 0.0000 (   257 PWs)   bands (ev):

  -113.1623 -66.9013 -66.9013 -66.9013  -6.4262   5.8163   5.8163   6.7046
     6.7046   6.7046  11.4133  11.4133  11.4133  11.4253  26.3714  26.3714
    30.2335

     occupation numbers 
     1.0000   1.0000   1.0000   1.0000   1.0000   1.0000   1.0000   1.0000
     1.0000   1.0000   1.0000   1.0000   1.0000   1.0000   0.0000   0.0000
     0.0000

          k = 0.0000 0.0000 0.0833 (   260 PWs)   bands (ev):

  -113.1672 -66.9634 -66.8979 -66.8979  -6.3621   5.7491   5.8267   6.6600
     6.6600   6.7107  10.1496  11.4944  11.4944  12.5883  25.8180  26.4751
    30.1269

     occupation numbers 
     1.0000   1.0000   1.0000   1.0000   1.0000   1.0000   1.0000   1.0000
     1.0000   1.0000   1.0000   1.0000   1.0000   0.2450   0.0000   0.0000
     0.0000

          k = 0.0000 0.0000 0.1667 (   272 PWs)   bands (ev):

  -113.1969 -67.0503 -66.9915 -66.9915  -6.1802   5.7022   5.8375   6.4777
     6.4777   6.5982   8.9667  11.6006  11.6006  13.6364  24.4780  26.7864
    29.6791

     occupation numbers 
     1.0000   1.0000   1.0000   1.0000   1.0000   1.0000   1.0000   1.0000
     1.0000   1.0000   1.0000   1.0000   1.0000   0.0000   0.0000   0.0000
     0.0000

          k = 0.0000 0.0000 0.2500 (   276 PWs)   bands (ev):

  -113.2048 -67.1237 -66.9911 -66.9911  -5.9099   5.4849   5.8782   6.3396
     6.3396   6.5985   7.9990  11.8804  11.8804  14.6074  22.9207  27.3096
    29.2090

     occupation numbers 
     1.0000   1.0000   1.0000   1.0000   1.0000   1.0000   1.0000   1.0000
     1.0000   1.0000   1.0000   1.0000   1.0000   0.0000   0.0000   0.0000
     0.0000

          k = 0.0000 0.0000 0.3333 (   280 PWs)   bands (ev):

  -113.2118 -67.1539 -67.0066 -67.0066  -5.6133   5.0466   5.8879   6.1730
     6.1730   6.6042   7.5793  12.1562  12.1562  15.5995  21.3231  28.0308
    28.6964

     occupation numbers 
     1.0000   1.0000   1.0000   1.0000   1.0000   1.0000   1.0000   1.0000
     1.0000   1.0000   1.0000   1.0000   1.0000   0.0000   0.0000   0.0000
     0.0000

          k = 0.0000 0.0000 0.4167 (   276 PWs)   bands (ev):

  -113.1962 -67.0253 -67.0161 -67.0161  -5.3744   4.6596   5.8340   6.1562
     6.1562   6.6224   7.5064  12.3908  12.3908  16.7243  19.9567  28.2830
    28.2830

     occupation numbers 
     1.0000   1.0000   1.0000   1.0000   1.0000   1.0000   1.0000   1.0000
     1.0000   1.0000   1.0000   1.0669   1.0669   0.0000   0.0000   0.0000
     0.0000

          k = 0.0000 0.0000-0.5000 (   288 PWs)   bands (ev):

  -113.2278 -67.1552 -67.0775 -67.0775  -5.2839   4.4457   5.7966   6.0362
     6.0362   6.6003   7.4229  12.3610  12.3610  17.3772  18.9796  28.1122
    28.1123

     occupation numbers 
     1.0000   1.0000   1.0000   1.0000   1.0000   1.0000   1.0000   1.0000
     1.0000   1.0000   1.0000   1.0397   1.0397   0.0000   0.0000   0.0000
     0.0000

          k = 0.0000 0.0833 0.0833 (   267 PWs)   bands (ev):

  -113.1848 -67.0355 -66.9516 -66.9390  -6.2997   5.7580   5.8045   6.5454
     6.5781   6.6790   9.7951  11.1606  11.5075  13.1843  25.7458  26.1132
    29.7360

     occupation numbers 
     1.0000   1.0000   1.0000   1.0000   1.0000   1.0000   1.0000   1.0000
     1.0000   1.0000   1.0000   1.0000   1.0000   0.0000   0.0000   0.0000
     0.0000

          k = 0.0000 0.0833 0.1667 (   270 PWs)   bands (ev):

  -113.1908 -67.0433 -66.9855 -66.9580  -6.1191   5.7166   5.8199   6.4610
     6.4738   6.6401   8.9428  11.1380  11.6911  14.1471  24.5542  26.1862
    29.7053

     occupation numbers 
     1.0000   1.0000   1.0000   1.0000   1.0000   1.0000   1.0000   1.0000
     1.0000   1.0000   1.0000   1.0000   1.0000   0.0000   0.0000   0.0000
     0.0000

          k = 0.0000 0.0833 0.2500 (   273 PWs)   bands (ev):

  -113.1944 -67.1230 -66.9551 -66.9487  -5.8536   5.5257   5.9027   6.2978
     6.3531   6.6488   8.0422  11.3963  11.9637  15.0542  22.9729  26.5096
    29.3155

     occupation numbers 
     1.0000   1.0000   1.0000   1.0000   1.0000   1.0000   1.0000   1.0000
     1.0000   1.0000   1.0000   1.0000   1.0000   0.0000   0.0000   0.0000
     0.0000

          k = 0.0000 0.0833 0.3333 (   277 PWs)   bands (ev):

  -113.2020 -67.1154 -66.9994 -66.9813  -5.5637   5.1343   5.9209   6.1933
     6.2276   6.5916   7.6181  11.6636  12.1821  16.0400  21.3311  26.7869
    28.8283

     occupation numbers 
     1.0000   1.0000   1.0000   1.0000   1.0000   1.0000   1.0000   1.0000
     1.0000   1.0000   1.0000   1.0000   1.0000   0.0000   0.0000   0.0000
     0.0000

          k = 0.0000 0.0833 0.4167 (   278 PWs)   bands (ev):

  -113.2014 -67.0724 -67.0173 -67.0082  -5.3306   4.7307   5.8946   6.1101
     6.1650   6.5994   7.5216  11.8816  12.3800  17.0628  19.8419  26.9558
    28.4538

     occupation numbers 
     1.0000   1.0000   1.0000   1.0000   1.0000   1.0000   1.0000   1.0000
     1.0000   1.0000   1.0000   1.0000   1.0571   0.0000   0.0000   0.0000
     0.0000

          k = 0.0000 0.0833-0.5000 (   276 PWs)   bands (ev):

  -113.1936 -67.0573 -67.0196 -66.9708  -5.2403   4.5724   5.9162   6.1081
     6.1274   6.6128   7.4819  12.0403  12.4675  17.8702  18.9114  27.0095
    28.3179

     occupation numbers 
     1.0000   1.0000   1.0000   1.0000   1.0000   1.0000   1.0000   1.0000
     1.0000   1.0000   1.0000   1.0000   1.0115   0.0000   0.0000   0.0000
     0.0000

          k = 0.0000 0.1667 0.1667 (   270 PWs)   bands (ev):

  -113.1888 -67.0579 -66.9784 -66.9422  -5.9472   5.7738   5.7925   6.3432
     6.4403   6.6460   8.7240  10.5489  11.8571  15.0101  24.7235  24.7281
    29.6488

     occupation numbers 
     1.0000   1.0000   1.0000   1.0000   1.0000   1.0000   1.0000   1.0000
     1.0000   1.0000   1.0000   1.0000   1.0000   0.0000   0.0000   0.0000
     0.0000

          k = 0.0000 0.1667 0.2500 (   276 PWs)   bands (ev):

  -113.2015 -67.1085 -67.0329 -66.9473  -5.6982   5.6137   5.8281   6.2144
     6.3604   6.5963   8.1984  10.3775  12.0593  15.8335  22.9875  24.9068
    29.4746

     occupation numbers 
     1.0000   1.0000   1.0000   1.0000   1.0000   1.0000   1.0000   1.0000
     1.0000   1.0000   1.0000   1.0000   1.0000   0.0000   0.0000   0.0000
     0.0000

          k = 0.0000 0.1667 0.3333 (   275 PWs)   bands (ev):

  -113.1960 -67.0759 -67.0221 -66.9511  -5.4238   5.3017   5.9230   6.2280
     6.2579   6.5919   7.7066  10.5853  12.2972  16.7537  21.3118  25.1269
    29.2311

     occupation numbers 
     1.0000   1.0000   1.0000   1.0000   1.0000   1.0000   1.0000   1.0000
     1.0000   1.0000   1.0000   1.0000   1.0060   0.0000   0.0000   0.0000
     0.0000

          k = 0.0000 0.1667 0.4167 (   282 PWs)   bands (ev):

  -113.2134 -67.1169 -67.0381 -67.0380  -5.2090   4.9554   5.9074   6.1261
     6.1617   6.5639   7.5265  10.8108  12.3266  17.5330  19.8414  25.2582
    28.9555

     occupation numbers 
     1.0000   1.0000   1.0000   1.0000   1.0000   1.0000   1.0000   1.0000
     1.0000   1.0000   1.0000   1.0000   1.0161   0.0000   0.0000   0.0000
     0.0000

          k = 0.0000 0.1667-0.5000 (   280 PWs)   bands (ev):

  -113.2056 -67.0648 -67.0604 -67.0193  -5.1263   4.8702   5.9175   6.1053
     6.1559   6.5512   7.4767  10.9137  12.4427  18.3345  18.8788  25.3190
    28.8707

     occupation numbers 
     1.0000   1.0000   1.0000   1.0000   1.0000   1.0000   1.0000   1.0000
     1.0000   1.0000   1.0000   1.0000   1.0701   0.0000   0.0000   0.0000
     0.0000

          k = 0.0000 0.2500 0.2500 (   272 PWs)   bands (ev):

  -113.1885 -67.0690 -66.9964 -66.9233  -5.4691   5.6419   5.9168   6.2175
     6.3573   6.5976   8.1863   9.6900  12.2221  16.6069  22.4715  23.9049
    29.6696

     occupation numbers 
     1.0000   1.0000   1.0000   1.0000   1.0000   1.0000   1.0000   1.0000
     1.0000   1.0000   1.0000   1.0000   1.0002   0.0000   0.0000   0.0000
     0.0000

          k = 0.0000 0.2500 0.3333 (   276 PWs)   bands (ev):

  -113.1978 -67.0823 -67.0486 -66.9412  -5.2254   5.4890   6.0103   6.2162
     6.3008   6.5347   7.8409   9.5103  12.3547  17.1038  21.2756  23.8240
    29.7824

     occupation numbers 
     1.0000   1.0000   1.0000   1.0000   1.0000   1.0000   1.0000   1.0000
     1.0000   1.0000   1.0000   1.0000   1.0344   0.0000   0.0000   0.0000
     0.0000

          k = 0.0000 0.2500 0.4167 (   273 PWs)   bands (ev):

  -113.1866 -67.0808 -66.9904 -66.9256  -5.0322   5.3460   6.0678   6.2207
     6.2626   6.5721   7.6188   9.7004  12.4897  17.3467  20.4119  23.9720
    29.8065

     occupation numbers 
     1.0000   1.0000   1.0000   1.0000   1.0000   1.0000   1.0000   1.0000
     1.0000   1.0000   1.0000   1.0000   0.9121   0.0000   0.0000   0.0000
     0.0000

          k = 0.0000 0.2500-0.5000 (   280 PWs)   bands (ev):

  -113.2056 -67.1108 -67.0394 -66.9941  -4.9612   5.2578   6.0467   6.1190
     6.2199   6.5443   7.5086   9.7609  12.4413  17.3476  20.0938  24.0204
    29.7791

     occupation numbers 
     1.0000   1.0000   1.0000   1.0000   1.0000   1.0000   1.0000   1.0000
     1.0000   1.0000   1.0000   1.0000   1.0720   0.0000   0.0000   0.0000
     0.0000

          k = 0.0000 0.3333 0.3333 (   276 PWs)   bands (ev):

  -113.1955 -67.0744 -67.0468 -66.9347  -5.0125   5.6033   6.1832   6.2474
     6.3374   6.4840   7.9209   8.6992  12.4241  16.9676  21.2505  23.2715
    30.3958

     occupation numbers 
     1.0000   1.0000   1.0000   1.0000   1.0000   1.0000   1.0000   1.0000
     1.0000   1.0000   1.0000   1.0000   1.0831   0.0000   0.0000   0.0000
     0.0000

          k = 0.0000 0.3333 0.4167 (   274 PWs)   bands (ev):

  -113.1881 -67.0869 -67.0145 -66.9190  -4.8482   5.6770   6.2239   6.2910
     6.3398   6.4900   7.7049   8.6822  12.4991  16.5385  21.2981  23.1659
    29.4173

     occupation numbers 
     1.0000   1.0000   1.0000   1.0000   1.0000   1.0000   1.0000   1.0000
     1.0000   1.0000   1.0000   1.0000   0.8575   0.0000   0.0000   0.0000
     0.0000

          k = 0.0000 0.3333-0.5000 (   280 PWs)   bands (ev):

  -113.2052 -67.1082 -67.0551 -66.9894  -4.7866   5.6764   6.1825   6.2812
     6.3081   6.4581   7.5244   8.7213  12.4184  16.2912  21.2772  23.2160
    29.1269

     occupation numbers 
     1.0000   1.0000   1.0000   1.0000   1.0000   1.0000   1.0000   1.0000
     1.0000   1.0000   1.0000   1.0000   1.0831   0.0000   0.0000   0.0000
     0.0000

          k = 0.0000 0.4167 0.4167 (   280 PWs)   bands (ev):

  -113.2048 -67.1191 -67.0914 -66.9415  -4.7042   5.8543   6.2578   6.3620
     6.4283   6.4881   7.6910   7.9690  12.4489  15.7033  21.9984  22.8284
    28.6228

     occupation numbers 
     1.0000   1.0000   1.0000   1.0000   1.0000   1.0000   1.0000   1.0000
     1.0000   1.0000   1.0000   1.0000   1.0605   0.0000   0.0000   0.0000
     0.0000

          k = 0.0000 0.4167-0.5000 (   276 PWs)   bands (ev):

  -113.1905 -67.1234 -67.0519 -66.8833  -4.6513   5.9781   6.2932   6.4000
     6.4423   6.6158   7.6197   7.8769  12.5254  15.3976  22.2140  22.8293
    28.2588

     occupation numbers 
     1.0000   1.0000   1.0000   1.0000   1.0000   1.0000   1.0000   1.0000
     1.0000   1.0000   1.0000   1.0000   0.6759   0.0000   0.0000   0.0000
     0.0000

          k = 0.0000-0.5000-0.5000 (   268 PWs)   bands (ev):

  -113.1660 -67.0141 -67.0141 -66.8331  -4.5959   6.0400   6.4341   6.5007
     6.5007   6.8552   7.6272   7.6272  12.5809  15.0593  22.7509  22.7509
    27.8452

     occupation numbers 
     1.0000   1.0000   1.0000   1.0000   1.0000   1.0000   1.0000   1.0000
     1.0000   1.0000   1.0000   1.0000   0.2863   0.0000   0.0000   0.0000
     0.0000

          k = 0.0833 0.0833 0.0833 (   263 PWs)   bands (ev):

  -113.1723 -67.0040 -66.9108 -66.9108  -6.2360   5.8188   5.8188   6.5274
     6.6455   6.6455   9.5828  11.2604  11.2604  13.7106  25.8228  25.8228
    28.8115

     occupation numbers 
     1.0000   1.0000   1.0000   1.0000   1.0000   1.0000   1.0000   1.0000
     1.0000   1.0000   1.0000   1.0000   1.0000   0.0000   0.0000   0.0000
     0.0000

          k = 0.0833 0.0833 0.1667 (   270 PWs)   bands (ev):

  -113.1896 -67.0561 -66.9674 -66.9589  -6.0593   5.7360   5.8416   6.4292
     6.4768   6.6137   8.8880  11.0821  11.4235  14.5582  24.6185  25.9324
    28.4461

     occupation numbers 
     1.0000   1.0000   1.0000   1.0000   1.0000   1.0000   1.0000   1.0000
     1.0000   1.0000   1.0000   1.0000   1.0000   0.0000   0.0000   0.0000
     0.0000

          k = 0.0833 0.0833 0.2500 (   277 PWs)   bands (ev):

  -113.2064 -67.1232 -67.0176 -66.9842  -5.8001   5.5665   5.8642   6.2758
     6.3069   6.5825   8.0986  11.2043  11.6636  15.4065  23.0042  26.0984
    28.4220

     occupation numbers 
     1.0000   1.0000   1.0000   1.0000   1.0000   1.0000   1.0000   1.0000
     1.0000   1.0000   1.0000   1.0000   1.0000   0.0000   0.0000   0.0000
     0.0000

          k = 0.0833 0.0833 0.3333 (   276 PWs)   bands (ev):

  -113.1994 -67.0989 -67.0081 -66.9703  -5.5146   5.1950   5.9096   6.1625
     6.2979   6.5944   7.6540  11.4657  11.9769  16.3418  21.3707  26.2334
    28.4296

     occupation numbers 
     1.0000   1.0000   1.0000   1.0000   1.0000   1.0000   1.0000   1.0000
     1.0000   1.0000   1.0000   1.0000   1.0000   0.0000   0.0000   0.0000
     0.0000

          k = 0.0833 0.0833 0.4167 (   278 PWs)   bands (ev):

  -113.2015 -67.0800 -67.0134 -67.0073  -5.2866   4.8200   5.9186   6.0771
     6.2036   6.5745   7.5390  11.6254  12.2241  17.3531  19.8239  26.2424
    28.3872

     occupation numbers 
     1.0000   1.0000   1.0000   1.0000   1.0000   1.0000   1.0000   1.0000
     1.0000   1.0000   1.0000   1.0000   1.0002   0.0000   0.0000   0.0000
     0.0000

          k = 0.0833 0.0833-0.5000 (   272 PWs)   bands (ev):

  -113.1837 -67.0275 -66.9772 -66.9595  -5.1977   4.6824   5.9932   6.0634
     6.2217   6.5956   7.5460  11.7773  12.3675  18.2687  18.7751  26.2422
    28.3863

     occupation numbers 
     1.0000   1.0000   1.0000   1.0000   1.0000   1.0000   1.0000   1.0000
     1.0000   1.0000   1.0000   1.0000   1.0455   0.0000   0.0000   0.0000
     0.0000

          k = 0.0833 0.1667 0.1667 (   273 PWs)   bands (ev):

  -113.1959 -67.0868 -66.9868 -66.9659  -5.8909   5.7758   5.7924   6.3198
     6.4216   6.5932   8.6627  10.6206  11.4798  15.3115  24.7005  24.7987
    28.0399

     occupation numbers 
     1.0000   1.0000   1.0000   1.0000   1.0000   1.0000   1.0000   1.0000
     1.0000   1.0000   1.0000   1.0000   1.0000   0.0000   0.0000   0.0000
     0.0000

          k = 0.0833 0.1667 0.2500 (   277 PWs)   bands (ev):

  -113.2045 -67.0937 -67.0430 -66.9771  -5.6453   5.6628   5.8369   6.2323
     6.3318   6.5410   8.1740  10.4371  11.6972  16.0973  23.0910  24.8156
    28.2054

     occupation numbers 
     1.0000   1.0000   1.0000   1.0000   1.0000   1.0000   1.0000   1.0000
     1.0000   1.0000   1.0000   1.0000   1.0000   0.0000   0.0000   0.0000
     0.0000

          k = 0.0833 0.1667 0.3333 (   279 PWs)   bands (ev):

  -113.2077 -67.1086 -67.0472 -66.9905  -5.3769   5.3564   5.9113   6.1218
     6.3211   6.5395   7.7289  10.5535  11.9471  16.8498  21.4115  24.8585
    28.4703

     occupation numbers 
     1.0000   1.0000   1.0000   1.0000   1.0000   1.0000   1.0000   1.0000
     1.0000   1.0000   1.0000   1.0000   1.0000   0.0000   0.0000   0.0000
     0.0000

          k = 0.0833 0.1667 0.4167 (   279 PWs)   bands (ev):

  -113.2056 -67.0860 -67.0497 -67.0004  -5.1646   5.0460   5.9354   6.0358
     6.2920   6.5486   7.5633  10.7368  12.1644  17.6454  19.9959  24.8248
    28.6802

     occupation numbers 
     1.0000   1.0000   1.0000   1.0000   1.0000   1.0000   1.0000   1.0000
     1.0000   1.0000   1.0000   1.0000   1.0000   0.0000   0.0000   0.0000
     0.0000

          k = 0.0833 0.1667-0.5000 (   274 PWs)   bands (ev):

  -113.1890 -67.0440 -67.0198 -66.9525  -5.0817   4.9562   5.9636   5.9959
     6.3200   6.5864   7.5624  10.8832  12.2717  18.3002  19.1937  24.7967
    28.7805

     occupation numbers 
     1.0000   1.0000   1.0000   1.0000   1.0000   1.0000   1.0000   1.0000
     1.0000   1.0000   1.0000   1.0000   1.0022   0.0000   0.0000   0.0000
     0.0000

          k = 0.0833 0.2500 0.2500 (   275 PWs)   bands (ev):

  -113.1972 -67.0497 -67.0384 -66.9735  -5.4199   5.6707   5.9210   6.1990
     6.3672   6.4872   8.1547   9.7772  11.8839  16.7812  22.6512  23.7336
    28.4837

     occupation numbers 
     1.0000   1.0000   1.0000   1.0000   1.0000   1.0000   1.0000   1.0000
     1.0000   1.0000   1.0000   1.0000   1.0000   0.0000   0.0000   0.0000
     0.0000

          k = 0.0833 0.2500 0.3333 (   278 PWs)   bands (ev):

  -113.2048 -67.0840 -67.0540 -66.9894  -5.1782   5.5324   5.9795   6.1237
     6.3835   6.4752   7.8594   9.5914  12.0332  17.1611  21.4480  23.6114
    28.8759

     occupation numbers 
     1.0000   1.0000   1.0000   1.0000   1.0000   1.0000   1.0000   1.0000
     1.0000   1.0000   1.0000   1.0000   1.0000   0.0000   0.0000   0.0000
     0.0000

          k = 0.0833 0.2500 0.4167 (   276 PWs)   bands (ev):

  -113.1976 -67.0755 -67.0271 -66.9769  -4.9890   5.3915   5.9893   6.1083
     6.3983   6.5060   7.6658   9.7058  12.2018  17.3808  20.5400  23.6116
    29.2524

     occupation numbers 
     1.0000   1.0000   1.0000   1.0000   1.0000   1.0000   1.0000   1.0000
     1.0000   1.0000   1.0000   1.0000   1.0001   0.0000   0.0000   0.0000
     0.0000

          k = 0.0833 0.2500-0.5000 (   278 PWs)   bands (ev):

  -113.2019 -67.0589 -67.0447 -67.0127  -4.9172   5.3378   5.9687   6.0611
     6.3759   6.4898   7.6274   9.7692  12.2293  17.4123  20.2153  23.6007
    29.4430

     occupation numbers 
     1.0000   1.0000   1.0000   1.0000   1.0000   1.0000   1.0000   1.0000
     1.0000   1.0000   1.0000   1.0000   1.0003   0.0000   0.0000   0.0000
     0.0000

          k = 0.0833 0.3333 0.3333 (   276 PWs)   bands (ev):

  -113.1981 -67.0715 -67.0373 -66.9746  -4.9678   5.6145   6.1320   6.1515
     6.4371   6.4435   7.9228   8.9299  12.1725  17.0076  21.3522  23.0011
    29.3447

     occupation numbers 
     1.0000   1.0000   1.0000   1.0000   1.0000   1.0000   1.0000   1.0000
     1.0000   1.0000   1.0000   1.0000   1.0000   0.0000   0.0000   0.0000
     0.0000

          k = 0.0833 0.3333 0.4167 (   276 PWs)   bands (ev):

  -113.1973 -67.0652 -67.0421 -66.9753  -4.8034   5.6685   6.0782   6.1836
     6.4463   6.5083   7.7900   8.7830  12.2499  16.6051  21.2559  22.8908
    29.4623

     occupation numbers 
     1.0000   1.0000   1.0000   1.0000   1.0000   1.0000   1.0000   1.0000
     1.0000   1.0000   1.0000   1.0000   1.0008   0.0000   0.0000   0.0000
     0.0000

          k = 0.0833 0.3333-0.5000 (   280 PWs)   bands (ev):

  -113.2080 -67.1151 -67.0539 -67.0002  -4.7426   5.6807   5.9839   6.1817
     6.4054   6.5030   7.7223   8.8134  12.2432  16.3529  21.2265  22.8403
    29.3582

     occupation numbers 
     1.0000   1.0000   1.0000   1.0000   1.0000   1.0000   1.0000   1.0000
     1.0000   1.0000   1.0000   1.0000   1.0006   0.0000   0.0000   0.0000
     0.0000

          k = 0.0833 0.4167 0.4167 (   282 PWs)   bands (ev):

  -113.2123 -67.1169 -67.0916 -66.9965  -4.6620   5.8080   6.1152   6.1957
     6.4018   6.5933   7.8714   8.1724  12.2292  15.8144  21.8094  22.5149
    28.8342

     occupation numbers 
     1.0000   1.0000   1.0000   1.0000   1.0000   1.0000   1.0000   1.0000
     1.0000   1.0000   1.0000   1.0000   1.0003   0.0000   0.0000   0.0000
     0.0000

          k = 0.0833 0.4167-0.5000 (   280 PWs)   bands (ev):

  -113.2058 -67.1056 -67.0883 -66.9650  -4.6049   5.9180   6.0736   6.2223
     6.4113   6.6478   7.8312   8.1189  12.2816  15.4855  22.0398  22.4801
    28.5498

     occupation numbers 
     1.0000   1.0000   1.0000   1.0000   1.0000   1.0000   1.0000   1.0000
     1.0000   1.0000   1.0000   1.0000   1.0033   0.0000   0.0000   0.0000
     0.0000

          k = 0.0833-0.5000-0.5000 (   284 PWs)   bands (ev):

  -113.2176 -67.1256 -67.1256 -67.0012  -4.5563   5.9650   6.1757   6.1757
     6.2991   6.7478   7.8642   7.8642  12.2310  15.1424  22.3323  22.3323
    28.1825

     occupation numbers 
     1.0000   1.0000   1.0000   1.0000   1.0000   1.0000   1.0000   1.0000
     1.0000   1.0000   1.0000   1.0000   1.0003   0.0000   0.0000   0.0000
     0.0000

          k = 0.1667 0.1667 0.1667 (   281 PWs)   bands (ev):

  -113.2177 -67.1003 -67.0554 -67.0554  -5.7320   5.7924   5.7924   6.2736
     6.3726   6.3726   8.4819  10.8093  10.8093  15.8968  24.5360  24.5360
    26.7873

     occupation numbers 
     1.0000   1.0000   1.0000   1.0000   1.0000   1.0000   1.0000   1.0000
     1.0000   1.0000   1.0000   1.0000   1.0000   0.0000   0.0000   0.0000
     0.0000

          k = 0.1667 0.1667 0.2500 (   279 PWs)   bands (ev):

  -113.2091 -67.0811 -67.0507 -67.0212  -5.4957   5.7538   5.8276   6.2185
     6.3327   6.4172   8.1450  10.4420  11.1684  16.5773  23.2371  24.3271
    26.9605

     occupation numbers 
     1.0000   1.0000   1.0000   1.0000   1.0000   1.0000   1.0000   1.0000
     1.0000   1.0000   1.0000   1.0000   1.0000   0.0000   0.0000   0.0000
     0.0000

          k = 0.1667 0.1667 0.3333 (   276 PWs)   bands (ev):

  -113.1985 -67.0620 -67.0443 -66.9744  -5.2405   5.5367   5.8867   6.1322
     6.4107   6.4782   7.8146  10.3716  11.5190  17.1990  21.6796  24.0325
    27.7068

     occupation numbers 
     1.0000   1.0000   1.0000   1.0000   1.0000   1.0000   1.0000   1.0000
     1.0000   1.0000   1.0000   1.0000   1.0000   0.0000   0.0000   0.0000
     0.0000

          k = 0.1667 0.1667 0.4167 (   275 PWs)   bands (ev):

  -113.1942 -67.0457 -67.0292 -66.9769  -5.0404   5.2761   5.9010   6.0787
     6.4421   6.4956   7.6774  10.4266  11.8277  17.7262  20.3792  23.7384
    28.4076

     occupation numbers 
     1.0000   1.0000   1.0000   1.0000   1.0000   1.0000   1.0000   1.0000
     1.0000   1.0000   1.0000   1.0000   1.0000   0.0000   0.0000   0.0000
     0.0000

          k = 0.1667 0.1667-0.5000 (   282 PWs)   bands (ev):

  -113.2152 -67.0942 -67.0797 -67.0380  -4.9645   5.1108   5.8561   6.0081
     6.3710   6.4716   7.6389  10.3998  11.8817  17.9626  19.7789  23.6194
    28.6958

     occupation numbers 
     1.0000   1.0000   1.0000   1.0000   1.0000   1.0000   1.0000   1.0000
     1.0000   1.0000   1.0000   1.0000   1.0000   0.0000   0.0000   0.0000
     0.0000

          k = 0.1667 0.2500 0.2500 (   283 PWs)   bands (ev):

  -113.2208 -67.1011 -67.0993 -67.0503  -5.2805   5.7340   5.8729   6.1742
     6.3174   6.3688   8.0203  10.0308  11.1490  16.9740  22.9736  23.3181
    26.8365

     occupation numbers 
     1.0000   1.0000   1.0000   1.0000   1.0000   1.0000   1.0000   1.0000
     1.0000   1.0000   1.0000   1.0000   1.0000   0.0000   0.0000   0.0000
     0.0000

          k = 0.1667 0.2500 0.3333 (   280 PWs)   bands (ev):

  -113.2110 -67.0909 -67.0688 -67.0212  -5.0469   5.6414   5.8693   6.1448
     6.3857   6.4521   7.8600   9.8015  11.4500  17.2486  21.7453  22.9775
    27.5229

     occupation numbers 
     1.0000   1.0000   1.0000   1.0000   1.0000   1.0000   1.0000   1.0000
     1.0000   1.0000   1.0000   1.0000   1.0000   0.0000   0.0000   0.0000
     0.0000

          k = 0.1667 0.2500 0.4167 (   275 PWs)   bands (ev):

  -113.1953 -67.0587 -67.0256 -66.9815  -4.8637   5.5285   5.8226   6.1623
     6.4396   6.5264   7.8290   9.7592  11.7442  17.4182  20.8122  22.6718
    28.4020

     occupation numbers 
     1.0000   1.0000   1.0000   1.0000   1.0000   1.0000   1.0000   1.0000
     1.0000   1.0000   1.0000   1.0000   1.0000   0.0000   0.0000   0.0000
     0.0000

          k = 0.1667 0.2500-0.5000 (   280 PWs)   bands (ev):

  -113.2105 -67.0908 -67.0776 -67.0141  -4.7966   5.4200   5.7751   6.1242
     6.4345   6.4514   7.8281   9.7213  11.8128  17.4246  20.4371  22.5192
    28.8449

     occupation numbers 
     1.0000   1.0000   1.0000   1.0000   1.0000   1.0000   1.0000   1.0000
     1.0000   1.0000   1.0000   1.0000   1.0000   0.0000   0.0000   0.0000
     0.0000

          k = 0.1667 0.3333 0.3333 (   280 PWs)   bands (ev):

  -113.2104 -67.0997 -67.0667 -67.0175  -4.8409   5.6404   5.9005   6.1543
     6.4276   6.4922   7.9324   9.3243  11.5971  17.0776  21.3842  22.3622
    27.8867

     occupation numbers 
     1.0000   1.0000   1.0000   1.0000   1.0000   1.0000   1.0000   1.0000
     1.0000   1.0000   1.0000   1.0000   1.0000   0.0000   0.0000   0.0000
     0.0000

          k = 0.1667 0.3333 0.4167 (   278 PWs)   bands (ev):

  -113.2034 -67.0931 -67.0541 -66.9891  -4.6788   5.6379   5.8400   6.1756
     6.4431   6.5242   8.0390   9.1139  11.8080  16.7705  21.0794  22.0445
    28.5880

     occupation numbers 
     1.0000   1.0000   1.0000   1.0000   1.0000   1.0000   1.0000   1.0000
     1.0000   1.0000   1.0000   1.0000   1.0000   0.0000   0.0000   0.0000
     0.0000

          k = 0.1667 0.3333-0.5000 (   274 PWs)   bands (ev):

  -113.1912 -67.0495 -67.0354 -66.9551  -4.6153   5.6914   5.7587   6.2011
     6.4617   6.5725   8.1137   9.1232  11.8931  16.6146  21.0544  21.8808
    29.1606

     occupation numbers 
     1.0000   1.0000   1.0000   1.0000   1.0000   1.0000   1.0000   1.0000
     1.0000   1.0000   1.0000   1.0000   1.0000   0.0000   0.0000   0.0000
     0.0000

          k = 0.1667 0.4167 0.4167 (   280 PWs)   bands (ev):

  -113.2072 -67.1157 -67.0715 -66.9864  -4.5350   5.6947   5.8568   6.1518
     6.3027   6.6772   8.2883   8.7265  11.8691  16.0857  21.2562  21.7472
    28.9472

     occupation numbers 
     1.0000   1.0000   1.0000   1.0000   1.0000   1.0000   1.0000   1.0000
     1.0000   1.0000   1.0000   1.0000   1.0000   0.0000   0.0000   0.0000
     0.0000

          k = 0.1667 0.4167-0.5000 (   278 PWs)   bands (ev):

  -113.2004 -67.1099 -67.0649 -66.9502  -4.4796   5.7767   5.8154   6.1749
     6.2459   6.7342   8.3856   8.6881  11.9248  15.7821  21.4125  21.5791
    29.4592

     occupation numbers 
     1.0000   1.0000   1.0000   1.0000   1.0000   1.0000   1.0000   1.0000
     1.0000   1.0000   1.0000   1.0000   1.0000   0.0000   0.0000   0.0000
     0.0000

          k = 0.1667-0.5000-0.5000 (   276 PWs)   bands (ev):

  -113.1934 -67.0961 -67.0961 -66.8920  -4.4258   5.8771   5.8771   6.0865
     6.1752   6.7636   8.5592   8.5592  12.0392  15.4392  21.5440  21.5440
    29.1401

     occupation numbers 
     1.0000   1.0000   1.0000   1.0000   1.0000   1.0000   1.0000   1.0000
     1.0000   1.0000   1.0000   1.0000   1.0000   0.0000   0.0000   0.0000
     0.0000

          k = 0.2500 0.2500 0.2500 (   284 PWs)   bands (ev):

  -113.2236 -67.1027 -67.1027 -67.0718  -5.0768   5.7863   5.7863   6.2318
     6.2318   6.4410   7.8915  10.4791  10.4791  17.1452  22.7441  22.7441
    26.1895

     occupation numbers 
     1.0000   1.0000   1.0000   1.0000   1.0000   1.0000   1.0000   1.0000
     1.0000   1.0000   1.0000   1.0000   1.0000   0.0000   0.0000   0.0000
     0.0000

          k = 0.2500 0.2500 0.3333 (   280 PWs)   bands (ev):

  -113.2096 -67.0744 -67.0725 -67.0302  -4.8575   5.6991   5.7087   6.2511
     6.3799   6.4846   7.9071  10.0273  11.0023  17.2977  21.7650  22.0759
    26.7956

     occupation numbers 
     1.0000   1.0000   1.0000   1.0000   1.0000   1.0000   1.0000   1.0000
     1.0000   1.0000   1.0000   1.0000   1.0000   0.0000   0.0000   0.0000
     0.0000

          k = 0.2500 0.2500 0.4167 (   279 PWs)   bands (ev):

  -113.2062 -67.0980 -67.0744 -66.9868  -4.6872   5.5730   5.6240   6.2693
     6.4278   6.5017   8.0764   9.7487  11.2952  17.3401  20.9301  21.5468
    27.7412

     occupation numbers 
     1.0000   1.0000   1.0000   1.0000   1.0000   1.0000   1.0000   1.0000
     1.0000   1.0000   1.0000   1.0000   1.0000   0.0000   0.0000   0.0000
     0.0000

          k = 0.2500 0.2500-0.5000 (   282 PWs)   bands (ev):

  -113.2163 -67.1099 -67.0890 -67.0356  -4.6242   5.4703   5.5983   6.2225
     6.3945   6.4686   8.1723   9.6301  11.4444  17.3306  20.5805  21.3473
    28.2353

     occupation numbers 
     1.0000   1.0000   1.0000   1.0000   1.0000   1.0000   1.0000   1.0000
     1.0000   1.0000   1.0000   1.0000   1.0000   0.0000   0.0000   0.0000
     0.0000

          k = 0.2500 0.3333 0.3333 (   280 PWs)   bands (ev):

  -113.2078 -67.1091 -67.0724 -66.9965  -4.6559   5.5566   5.6692   6.2998
     6.4156   6.5007   8.1012   9.9398  10.9829  17.2215  21.1065  21.5063
    26.8648

     occupation numbers 
     1.0000   1.0000   1.0000   1.0000   1.0000   1.0000   1.0000   1.0000
     1.0000   1.0000   1.0000   1.0000   1.0000   0.0000   0.0000   0.0000
     0.0000

          k = 0.2500 0.3333 0.4167 (   282 PWs)   bands (ev):

  -113.2138 -67.1150 -67.0984 -67.0116  -4.4992   5.4769   5.5881   6.2455
     6.3327   6.5617   8.4352   9.5949  11.2641  17.0032  20.6031  20.9583
    27.3482

     occupation numbers 
     1.0000   1.0000   1.0000   1.0000   1.0000   1.0000   1.0000   1.0000
     1.0000   1.0000   1.0000   1.0000   1.0000   0.0000   0.0000   0.0000
     0.0000

          k = 0.2500 0.3333-0.5000 (   276 PWs)   bands (ev):

  -113.1964 -67.0687 -67.0674 -66.9559  -4.4357   5.5171   5.5311   6.2293
     6.3496   6.6249   8.6526   9.5165  11.4351  16.9138  20.6266  20.6276
    27.6957

     occupation numbers 
     1.0000   1.0000   1.0000   1.0000   1.0000   1.0000   1.0000   1.0000
     1.0000   1.0000   1.0000   1.0000   1.0000   0.0000   0.0000   0.0000
     0.0000

          k = 0.2500 0.4167 0.4167 (   279 PWs)   bands (ev):

  -113.2048 -67.1063 -67.0825 -66.9753  -4.3508   5.4376   5.5677   6.0499
     6.3916   6.6755   8.8813   9.4405  11.4293  16.5145  20.3771  20.6587
    27.2139

     occupation numbers 
     1.0000   1.0000   1.0000   1.0000   1.0000   1.0000   1.0000   1.0000
     1.0000   1.0000   1.0000   1.0000   1.0000   0.0000   0.0000   0.0000
     0.0000

          k = 0.2500 0.4167-0.5000 (   282 PWs)   bands (ev):

  -113.2139 -67.1378 -67.1088 -66.9908  -4.2965   5.4692   5.5112   5.9167
     6.3840   6.7127   9.0508   9.3144  11.4680  16.2530  20.4021  20.4617
    27.1603

     occupation numbers 
     1.0000   1.0000   1.0000   1.0000   1.0000   1.0000   1.0000   1.0000
     1.0000   1.0000   1.0000   1.0000   1.0000   0.0000   0.0000   0.0000
     0.0000

          k = 0.2500-0.5000-0.5000 (   284 PWs)   bands (ev):

  -113.2201 -67.1521 -67.1521 -66.9865  -4.2435   5.5055   5.5055   5.7605
     6.4053   6.7467   9.2107   9.2107  11.5029  15.9492  20.3762  20.3762
    26.9676

     occupation numbers 
     1.0000   1.0000   1.0000   1.0000   1.0000   1.0000   1.0000   1.0000
     1.0000   1.0000   1.0000   1.0000   1.0000   0.0000   0.0000   0.0000
     0.0000

          k = 0.3333 0.3333 0.3333 (   281 PWs)   bands (ev):

  -113.2108 -67.1069 -67.1069 -66.9950  -4.4592   5.4636   5.4636   6.2382
     6.4814   6.4814   8.5148  10.4730  10.4730  17.2489  20.5683  20.5683
    26.3675

     occupation numbers 
     1.0000   1.0000   1.0000   1.0000   1.0000   1.0000   1.0000   1.0000
     1.0000   1.0000   1.0000   1.0000   1.0000   0.0000   0.0000   0.0000
     0.0000

          k = 0.3333 0.3333 0.4167 (   280 PWs)   bands (ev):

  -113.2077 -67.1171 -67.1055 -66.9710  -4.3050   5.3414   5.4133   6.0149
     6.4999   6.6203   8.9902  10.0665  10.9393  17.1661  19.8562  20.1290
    26.2438

     occupation numbers 
     1.0000   1.0000   1.0000   1.0000   1.0000   1.0000   1.0000   1.0000
     1.0000   1.0000   1.0000   1.0000   1.0000   0.0000   0.0000   0.0000
     0.0000

          k = 0.3333 0.3333-0.5000 (   284 PWs)   bands (ev):

  -113.2209 -67.1446 -67.1265 -67.0224  -4.2492   5.3077   5.3860   5.8484
     6.4562   6.6835   9.2177   9.8145  11.0788  17.0891  19.5687  19.9817
    26.1806

     occupation numbers 
     1.0000   1.0000   1.0000   1.0000   1.0000   1.0000   1.0000   1.0000
     1.0000   1.0000   1.0000   1.0000   1.0000   0.0000   0.0000   0.0000
     0.0000

          k = 0.3333 0.4167 0.4167 (   288 PWs)   bands (ev):

  -113.2351 -67.1458 -67.1314 -67.1185  -4.1581   5.2464   5.2850   5.6528
     6.4958   6.6729   9.4019  10.1148  10.9576  17.0199  19.3592  19.5811
    25.3349

     occupation numbers 
     1.0000   1.0000   1.0000   1.0000   1.0000   1.0000   1.0000   1.0000
     1.0000   1.0000   1.0000   1.0000   1.0000   0.0000   0.0000   0.0000
     0.0000

          k = 0.3333 0.4167-0.5000 (   288 PWs)   bands (ev):

  -113.2365 -67.1524 -67.1330 -67.1231  -4.1013   5.2267   5.2498   5.5353
     6.5033   6.7241   9.7513   9.9159  11.0678  16.8925  19.2207  19.4406
    25.0058

     occupation numbers 
     1.0000   1.0000   1.0000   1.0000   1.0000   1.0000   1.0000   1.0000
     1.0000   1.0000   1.0000   1.0000   1.0000   0.0000   0.0000   0.0000
     0.0000

          k = 0.3333-0.5000-0.5000 (   292 PWs)   bands (ev):

  -113.2490 -67.1726 -67.1726 -67.1580  -4.0453   5.2087   5.2087   5.3869
     6.5028   6.7421   9.9318   9.9318  11.0301  16.6687  19.2449  19.2449
    24.5536

     occupation numbers 
     1.0000   1.0000   1.0000   1.0000   1.0000   1.0000   1.0000   1.0000
     1.0000   1.0000   1.0000   1.0000   1.0000   0.0000   0.0000   0.0000
     0.0000

          k = 0.4167 0.4167 0.4167 (   289 PWs)   bands (ev):

  -113.2415 -67.1637 -67.1420 -67.1420  -4.0059   5.1331   5.1331   5.3733
     6.6607   6.6607   9.9393  10.6630  10.6630  17.4010  18.7480  18.7480
    23.9330

     occupation numbers 
     1.0000   1.0000   1.0000   1.0000   1.0000   1.0000   1.0000   1.0000
     1.0000   1.0000   1.0000   1.0000   1.0000   0.0000   0.0000   0.0000
     0.0000

          k = 0.4167 0.4167-0.5000 (   286 PWs)   bands (ev):

  -113.2327 -67.1598 -67.1316 -67.0948  -3.9469   5.1032   5.1204   5.2481
     6.6783   6.7386  10.3536  10.3844  10.9851  17.4729  18.4262  18.6683
    23.3659

     occupation numbers 
     1.0000   1.0000   1.0000   1.0000   1.0000   1.0000   1.0000   1.0000
     1.0000   1.0000   1.0000   1.0000   1.0000   0.0000   0.0000   0.0000
     0.0000

          k = 0.4167-0.5000-0.5000 (   284 PWs)   bands (ev):

  -113.2275 -67.1507 -67.0983 -67.0983  -3.8885   5.0707   5.0707   5.1452
     6.6992   6.8075  10.6375  10.6375  10.9071  17.5288  18.3700  18.3700
    22.6784

     occupation numbers 
     1.0000   1.0000   1.0000   1.0000   1.0000   1.0000   1.0000   1.0000
     1.0000   1.0000   1.0000   1.0000   1.0000   0.0000   0.0000   0.0000
     0.0000

          k =-0.5000-0.5000-0.5000 (   280 PWs)   bands (ev):

  -113.2172 -67.0894 -67.0894 -67.0894  -3.8279   5.0360   5.0360   5.0360
     6.8056   6.8056  10.9189  10.9189  10.9189  18.0271  18.0271  18.0271
    21.8391

     occupation numbers 
     1.0000   1.0000   1.0000   1.0000   1.0000   1.0000   1.0000   1.0000
     1.0000   1.0000   1.0000   1.0000   1.0000   0.0000   0.0000   0.0000
     0.0000

     the Fermi energy is    12.5628 ev

!    total energy              =    -502.58100172 Ry
     estimated scf accuracy    <          7.4E-11 Ry
     smearing contrib. (-TS)   =       0.00015421 Ry
     internal energy E=F+TS    =    -502.58115593 Ry

     The total energy is F=E-TS. E is the sum of the following terms:
     one-electron contribution =    -351.42113461 Ry
     hartree contribution      =     188.92768583 Ry
     xc contribution           =     -49.51958558 Ry
     ewald contribution        =    -281.02274355 Ry
     one-center paw contrib.   =      -9.54537802 Ry
      -> PAW hartree energy AE =      32.07148863 Ry
      -> PAW hartree energy PS =     -32.00626040 Ry
      -> PAW xc energy AE      =     -17.50733927 Ry
      -> PAW xc energy PS      =       7.89673304 Ry
      -> total E_H with PAW    =     188.99291405 Ry
      -> total E_XC with PAW   =     -59.13019182 Ry

     convergence has been achieved in   9 iterations

     Forces acting on atoms (cartesian axes, Ry/au):

     atom    1 type  2   force =     0.00000000    0.00000000    0.00000000
     atom    2 type  1   force =     0.00000000    0.00000000    0.00000000
     The non-local contrib.  to forces
     atom    1 type  2   force =     0.00000000    0.00000000    0.00000000
     atom    2 type  1   force =     0.00000000    0.00000000    0.00000000
     The ionic contribution  to forces
     atom    1 type  2   force =    -0.00000000   -0.00000000   -0.00000000
     atom    2 type  1   force =     0.00000000    0.00000000    0.00000000
     The local contribution  to forces
     atom    1 type  2   force =     0.00000000    0.00000000    0.00000000
     atom    2 type  1   force =     0.00000000    0.00000000    0.00000000
     The core correction contribution to forces
     atom    1 type  2   force =     0.00000000    0.00000000    0.00000000
     atom    2 type  1   force =     0.00000000    0.00000000    0.00000000
     The Hubbard contrib.    to forces
     atom    1 type  2   force =     0.00000000    0.00000000    0.00000000
     atom    2 type  1   force =     0.00000000    0.00000000    0.00000000
     The SCF correction term to forces
     atom    1 type  2   force =    -0.00000000   -0.00000000    0.00000000
     atom    2 type  1   force =     0.00000000   -0.00000000   -0.00000000

     Total force =     0.000000     Total SCF correction =     0.000000


     Computing stress (Cartesian axis) and pressure

          total   stress  (Ry/bohr**3)                   (kbar)     P=    -3524.47
  -0.02395886   0.00000000   0.00000000        -3524.47        0.00        0.00
   0.00000000  -0.02395886   0.00000000            0.00    -3524.47        0.00
   0.00000000   0.00000000  -0.02395886            0.00        0.00    -3524.47

     kinetic stress (kbar)  43672.24      0.00      0.00
                                0.00  43672.24      0.00
                                0.00      0.00  43672.24

     local   stress (kbar)   9134.17     -0.00      0.00
                               -0.00   9134.17     -0.00
                                0.00     -0.00   9134.17

     nonloc. stress (kbar)  -4367.63      0.00      0.00
                                0.00  -4367.63      0.00
                                0.00      0.00  -4367.63

     hartree stress (kbar)  70380.11      0.00     -0.00
                                0.00  70380.11      0.00
                               -0.00      0.00  70380.11

     exc-cor stress (kbar) -17190.83      0.00      0.00
                                0.00 -17190.83     -0.00
                                0.00     -0.00 -17190.83

     corecor stress (kbar)   -464.80     -0.00      0.00
                               -0.00   -464.80      0.00
                                0.00      0.00   -464.80

     ewald   stress (kbar)-104687.74     -0.00     -0.00
                               -0.00-104687.74     -0.00
                               -0.00     -0.00-104687.74

     hubbard stress (kbar)      0.00      0.00      0.00
                                0.00      0.00      0.00
                                0.00      0.00      0.00

     DFT-D   stress (kbar)      0.00      0.00      0.00
                                0.00      0.00      0.00
                                0.00      0.00      0.00

     XDM     stress (kbar)      0.00      0.00      0.00
                                0.00      0.00      0.00
                                0.00      0.00      0.00

     dft-nl  stress (kbar)      0.00      0.00      0.00
                                0.00      0.00      0.00
                                0.00      0.00      0.00

     TS-vdW  stress (kbar)      0.00      0.00      0.00
                                0.00      0.00      0.00
                                0.00      0.00      0.00

     MDB     stress (kbar)      0.00      0.00      0.00
                                0.00      0.00      0.00
                                0.00      0.00      0.00

     3D-RISM stress (kbar)      0.00      0.00      0.00
                                0.00      0.00      0.00
                                0.00      0.00      0.00


     Writing all to output data dir ./temp_cubic/aiida.save/ :
     XML data file, charge density, pseudopotentials, collected wavefunctions

     init_run     :     15.48s CPU      0.80s WALL (       1 calls)
     electrons    :    640.76s CPU     27.08s WALL (       1 calls)
     forces       :      3.08s CPU      0.13s WALL (       1 calls)
     stress       :      4.44s CPU      0.24s WALL (       1 calls)

     Called by init_run:
     wfcinit      :     13.32s CPU      0.57s WALL (       1 calls)
     wfcinit:atom :      0.01s CPU      0.01s WALL (      84 calls)
     wfcinit:wfcr :     12.86s CPU      0.53s WALL (      84 calls)
     potinit      :      0.50s CPU      0.03s WALL (       1 calls)
     hinit0       :      1.12s CPU      0.17s WALL (       1 calls)

     Called by electrons:
     c_bands      :    552.22s CPU     23.29s WALL (       9 calls)
     sum_band     :     83.07s CPU      3.50s WALL (       9 calls)
     v_of_rho     :      0.32s CPU      0.02s WALL (      10 calls)
     v_h          :      0.28s CPU      0.01s WALL (      10 calls)
     v_xc         :      0.19s CPU      0.02s WALL (      12 calls)
     newd         :      3.14s CPU      0.14s WALL (      10 calls)
     PAW_pot      :      1.59s CPU      0.08s WALL (      10 calls)
     mix_rho      :      0.10s CPU      0.01s WALL (       9 calls)

     Called by c_bands:
     init_us_2    :      8.19s CPU      0.40s WALL (    1764 calls)
     cegterg      :    496.34s CPU     21.11s WALL (     756 calls)

     Called by sum_band:
     sum_band:wei :      0.02s CPU      0.01s WALL (       9 calls)
     sum_band:loo :     79.38s CPU      3.34s WALL (       9 calls)
     sum_band:buf :      0.24s CPU      0.01s WALL (     756 calls)
     sum_band:ini :      1.93s CPU      0.10s WALL (     756 calls)
     sum_band:cal :      4.05s CPU      0.14s WALL (     756 calls)
     sum_band:bec :      2.93s CPU      0.15s WALL (     756 calls)
     addusdens    :      3.43s CPU      0.15s WALL (       9 calls)
                                        0.00s GPU  (       9 calls)
     addusd:skk   :      0.00s CPU      0.00s WALL (      18 calls)
                                        0.00s GPU  (      18 calls)

     Called by *egterg:
     cdiaghg      :     13.35s CPU      0.66s WALL (    2416 calls)
     cegterg:over :      9.39s CPU      0.51s WALL (    1660 calls)
     cegterg:upda :     16.15s CPU      0.61s WALL (    1660 calls)
     cegterg:last :     23.22s CPU      0.81s WALL (    1507 calls)
     h_psi        :    407.15s CPU     17.29s WALL (    2500 calls)
     s_psi        :      8.76s CPU      0.42s WALL (    2500 calls)
     g_psi        :      8.65s CPU      0.37s WALL (    1660 calls)

     Called by h_psi:
     h_psi:calbec :     10.85s CPU      0.38s WALL (    2500 calls)
     vloc_psi     :    372.58s CPU     15.93s WALL (    2500 calls)
     add_vuspsi   :     10.31s CPU      0.43s WALL (    2500 calls)

     General routines
     calbec       :     16.31s CPU      0.59s WALL (    3676 calls)
     fft          :      0.06s CPU      0.02s WALL (     153 calls)
     ffts         :      0.00s CPU      0.00s WALL (      19 calls)
     fftw         :     81.02s CPU      3.57s WALL (   75000 calls)
     interpolate  :      0.00s CPU      0.00s WALL (      10 calls)

     Parallel routines

     PAW routines
     PAW_pot      :      1.59s CPU      0.08s WALL (      10 calls)
     PAW_symme    :      0.00s CPU      0.00s WALL (      19 calls)

     PWSCF        :  11m12.44s CPU     29.13s WALL


   This run was terminated on:  13:24:41  12Jun2024            

=------------------------------------------------------------------------------=
   JOB DONE.
=------------------------------------------------------------------------------=
