
     Program PWSCF v.7.3.1 starts on  8Jun2024 at  0: 3: 8 

     This program is part of the open-source Quantum ESPRESSO suite
     for quantum simulation of materials; please cite
         "P. Giannozzi et al., J. Phys.:Condens. Matter 21 395502 (2009);
         "P. Giannozzi et al., J. Phys.:Condens. Matter 29 465901 (2017);
         "P. Giannozzi et al., J. Chem. Phys. 152 154105 (2020);
          URL http://www.quantum-espresso.org", 
     in publications or presentations arising from this work. More details at
     http://www.quantum-espresso.org/quote

     Parallel version (MPI & OpenMP), running on      24 processor cores
     Number of MPI processes:                 1
     Threads/MPI process:                    24

     MPI processes distributed on     1 nodes
     4407 MiB available memory on the printing compute node when the environment starts

     Waiting for input...
     Reading input from standard input

     Current dimensions of program PWSCF are:
     Max number of different atomic species (ntypx) = 10
     Max number of k-points (npk) =  40000
     Max angular momentum in pseudopotentials (lmaxx) =  4
     file O.pbe-n-kjpaw_psl.0.1.UPF: wavefunction(s)  2P renormalized
     Message from routine setup:
     using ibrav=0 with symmetry is DISCOURAGED, use correct ibrav instead

     Subspace diagonalization in iterative solution of the eigenvalue problem:
     a serial algorithm will be used


     G-vector sticks info
     --------------------
     sticks:   dense  smooth     PW     G-vecs:    dense   smooth      PW
     Sum        1201     593    185                30839    10827    1935

     Using Slab Decomposition



     bravais-lattice index     =            0
     lattice parameter (alat)  =       6.1042  a.u.
     unit-cell volume          =     227.4552 (a.u.)^3
     number of atoms/cell      =            2
     number of atomic types    =            2
     number of electrons       =        26.00
     number of Kohn-Sham states=           17
     kinetic-energy cutoff     =      50.0000  Ry
     charge density cutoff     =     400.0000  Ry
     scf convergence threshold =      1.0E-08
     mixing beta               =       0.4000
     number of iterations used =            8  plain     mixing
     Exchange-correlation= SLA  PW   PBE  PBE
                           (   1   4   3   4   0   0   0)

     celldm(1)=   6.104245  celldm(2)=   0.000000  celldm(3)=   0.000000
     celldm(4)=   0.000000  celldm(5)=   0.000000  celldm(6)=   0.000000

     crystal axes: (cart. coord. in units of alat)
               a(1) = (   1.000000   0.000000   0.000000 )  
               a(2) = (   0.000000   1.000000   0.000000 )  
               a(3) = (   0.000000   0.000000   1.000000 )  

     reciprocal axes: (cart. coord. in units 2 pi/alat)
               b(1) = (  1.000000  0.000000  0.000000 )  
               b(2) = (  0.000000  1.000000  0.000000 )  
               b(3) = (  0.000000  0.000000  1.000000 )  


     PseudoPot. # 1 for O  read from file:
     ../SSSP_1.3.0_PBE_efficiency/O.pbe-n-kjpaw_psl.0.1.UPF
     MD5 check sum: 0234752ac141de4415c5fc33072bef88
     Pseudo is Projector augmented-wave + core cor, Zval =  6.0
     Generated using "atomic" code by A. Dal Corso  v.5.0.99 svn rev. 10869
     Shape of augmentation charge: BESSEL
     Using radial grid of 1095 points,  4 beta functions with: 
                l(1) =   0
                l(2) =   0
                l(3) =   1
                l(4) =   1
     Q(r) pseudized with 0 coefficients 


     PseudoPot. # 2 for Zn read from file:
     ../SSSP_1.3.0_PBE_efficiency/Zn_pbe_v1.uspp.F.UPF
     MD5 check sum: df62231357ef9e81f77b2b3087fa5675
     Pseudo is Ultrasoft, Zval = 20.0
     Generated by new atomic code, or converted to UPF format
     Using radial grid of  943 points,  6 beta functions with: 
                l(1) =   0
                l(2) =   0
                l(3) =   1
                l(4) =   1
                l(5) =   2
                l(6) =   2
     Q(r) pseudized with  8 coefficients,  rinner =    1.100   1.100   1.100
                                                       1.100   1.100

     atomic species   valence    mass     pseudopotential
     O                 6.00    15.99940     O ( 1.00)
     Zn               20.00    65.38000     Zn( 1.00)

     48 Sym. Ops., with inversion, found


                                    s                        frac. trans.

      isym =  1     identity                                     

 cryst.   s( 1) = (     1          0          0      )
                  (     0          1          0      )
                  (     0          0          1      )

 cart.    s( 1) = (  1.0000000  0.0000000  0.0000000 )
                  (  0.0000000  1.0000000  0.0000000 )
                  (  0.0000000  0.0000000  1.0000000 )


      isym =  2     180 deg rotation - cart. axis [0,0,1]        

 cryst.   s( 2) = (    -1          0          0      )
                  (     0         -1          0      )
                  (     0          0          1      )

 cart.    s( 2) = ( -1.0000000  0.0000000  0.0000000 )
                  (  0.0000000 -1.0000000  0.0000000 )
                  (  0.0000000  0.0000000  1.0000000 )


      isym =  3     180 deg rotation - cart. axis [0,1,0]        

 cryst.   s( 3) = (    -1          0          0      )
                  (     0          1          0      )
                  (     0          0         -1      )

 cart.    s( 3) = ( -1.0000000  0.0000000  0.0000000 )
                  (  0.0000000  1.0000000  0.0000000 )
                  (  0.0000000  0.0000000 -1.0000000 )


      isym =  4     180 deg rotation - cart. axis [1,0,0]        

 cryst.   s( 4) = (     1          0          0      )
                  (     0         -1          0      )
                  (     0          0         -1      )

 cart.    s( 4) = (  1.0000000  0.0000000  0.0000000 )
                  (  0.0000000 -1.0000000  0.0000000 )
                  (  0.0000000  0.0000000 -1.0000000 )


      isym =  5     180 deg rotation - cart. axis [1,1,0]        

 cryst.   s( 5) = (     0          1          0      )
                  (     1          0          0      )
                  (     0          0         -1      )

 cart.    s( 5) = (  0.0000000  1.0000000  0.0000000 )
                  (  1.0000000  0.0000000  0.0000000 )
                  (  0.0000000  0.0000000 -1.0000000 )


      isym =  6     180 deg rotation - cart. axis [1,-1,0]       

 cryst.   s( 6) = (     0         -1          0      )
                  (    -1          0          0      )
                  (     0          0         -1      )

 cart.    s( 6) = (  0.0000000 -1.0000000  0.0000000 )
                  ( -1.0000000  0.0000000  0.0000000 )
                  (  0.0000000  0.0000000 -1.0000000 )


      isym =  7      90 deg rotation - cart. axis [0,0,-1]       

 cryst.   s( 7) = (     0         -1          0      )
                  (     1          0          0      )
                  (     0          0          1      )

 cart.    s( 7) = (  0.0000000  1.0000000  0.0000000 )
                  ( -1.0000000  0.0000000  0.0000000 )
                  (  0.0000000  0.0000000  1.0000000 )


      isym =  8      90 deg rotation - cart. axis [0,0,1]        

 cryst.   s( 8) = (     0          1          0      )
                  (    -1          0          0      )
                  (     0          0          1      )

 cart.    s( 8) = (  0.0000000 -1.0000000  0.0000000 )
                  (  1.0000000  0.0000000  0.0000000 )
                  (  0.0000000  0.0000000  1.0000000 )


      isym =  9     180 deg rotation - cart. axis [1,0,1]        

 cryst.   s( 9) = (     0          0          1      )
                  (     0         -1          0      )
                  (     1          0          0      )

 cart.    s( 9) = (  0.0000000  0.0000000  1.0000000 )
                  (  0.0000000 -1.0000000  0.0000000 )
                  (  1.0000000  0.0000000  0.0000000 )


      isym = 10     180 deg rotation - cart. axis [-1,0,1]       

 cryst.   s(10) = (     0          0         -1      )
                  (     0         -1          0      )
                  (    -1          0          0      )

 cart.    s(10) = (  0.0000000  0.0000000 -1.0000000 )
                  (  0.0000000 -1.0000000  0.0000000 )
                  ( -1.0000000  0.0000000  0.0000000 )


      isym = 11      90 deg rotation - cart. axis [0,1,0]        

 cryst.   s(11) = (     0          0         -1      )
                  (     0          1          0      )
                  (     1          0          0      )

 cart.    s(11) = (  0.0000000  0.0000000  1.0000000 )
                  (  0.0000000  1.0000000  0.0000000 )
                  ( -1.0000000  0.0000000  0.0000000 )


      isym = 12      90 deg rotation - cart. axis [0,-1,0]       

 cryst.   s(12) = (     0          0          1      )
                  (     0          1          0      )
                  (    -1          0          0      )

 cart.    s(12) = (  0.0000000  0.0000000 -1.0000000 )
                  (  0.0000000  1.0000000  0.0000000 )
                  (  1.0000000  0.0000000  0.0000000 )


      isym = 13     180 deg rotation - cart. axis [0,1,1]        

 cryst.   s(13) = (    -1          0          0      )
                  (     0          0          1      )
                  (     0          1          0      )

 cart.    s(13) = ( -1.0000000  0.0000000  0.0000000 )
                  (  0.0000000  0.0000000  1.0000000 )
                  (  0.0000000  1.0000000  0.0000000 )


      isym = 14     180 deg rotation - cart. axis [0,1,-1]       

 cryst.   s(14) = (    -1          0          0      )
                  (     0          0         -1      )
                  (     0         -1          0      )

 cart.    s(14) = ( -1.0000000  0.0000000  0.0000000 )
                  (  0.0000000  0.0000000 -1.0000000 )
                  (  0.0000000 -1.0000000  0.0000000 )


      isym = 15      90 deg rotation - cart. axis [-1,0,0]       

 cryst.   s(15) = (     1          0          0      )
                  (     0          0         -1      )
                  (     0          1          0      )

 cart.    s(15) = (  1.0000000  0.0000000  0.0000000 )
                  (  0.0000000  0.0000000  1.0000000 )
                  (  0.0000000 -1.0000000  0.0000000 )


      isym = 16      90 deg rotation - cart. axis [1,0,0]        

 cryst.   s(16) = (     1          0          0      )
                  (     0          0          1      )
                  (     0         -1          0      )

 cart.    s(16) = (  1.0000000  0.0000000  0.0000000 )
                  (  0.0000000  0.0000000 -1.0000000 )
                  (  0.0000000  1.0000000  0.0000000 )


      isym = 17     120 deg rotation - cart. axis [-1,-1,-1]     

 cryst.   s(17) = (     0          0          1      )
                  (     1          0          0      )
                  (     0          1          0      )

 cart.    s(17) = (  0.0000000  1.0000000  0.0000000 )
                  (  0.0000000  0.0000000  1.0000000 )
                  (  1.0000000  0.0000000  0.0000000 )


      isym = 18     120 deg rotation - cart. axis [-1,1,1]       

 cryst.   s(18) = (     0          0         -1      )
                  (    -1          0          0      )
                  (     0          1          0      )

 cart.    s(18) = (  0.0000000 -1.0000000  0.0000000 )
                  (  0.0000000  0.0000000  1.0000000 )
                  ( -1.0000000  0.0000000  0.0000000 )


      isym = 19     120 deg rotation - cart. axis [1,1,-1]       

 cryst.   s(19) = (     0          0         -1      )
                  (     1          0          0      )
                  (     0         -1          0      )

 cart.    s(19) = (  0.0000000  1.0000000  0.0000000 )
                  (  0.0000000  0.0000000 -1.0000000 )
                  ( -1.0000000  0.0000000  0.0000000 )


      isym = 20     120 deg rotation - cart. axis [1,-1,1]       

 cryst.   s(20) = (     0          0          1      )
                  (    -1          0          0      )
                  (     0         -1          0      )

 cart.    s(20) = (  0.0000000 -1.0000000  0.0000000 )
                  (  0.0000000  0.0000000 -1.0000000 )
                  (  1.0000000  0.0000000  0.0000000 )


      isym = 21     120 deg rotation - cart. axis [1,1,1]        

 cryst.   s(21) = (     0          1          0      )
                  (     0          0          1      )
                  (     1          0          0      )

 cart.    s(21) = (  0.0000000  0.0000000  1.0000000 )
                  (  1.0000000  0.0000000  0.0000000 )
                  (  0.0000000  1.0000000  0.0000000 )


      isym = 22     120 deg rotation - cart. axis [-1,1,-1]      

 cryst.   s(22) = (     0         -1          0      )
                  (     0          0         -1      )
                  (     1          0          0      )

 cart.    s(22) = (  0.0000000  0.0000000  1.0000000 )
                  ( -1.0000000  0.0000000  0.0000000 )
                  (  0.0000000 -1.0000000  0.0000000 )


      isym = 23     120 deg rotation - cart. axis [1,-1,-1]      

 cryst.   s(23) = (     0         -1          0      )
                  (     0          0          1      )
                  (    -1          0          0      )

 cart.    s(23) = (  0.0000000  0.0000000 -1.0000000 )
                  ( -1.0000000  0.0000000  0.0000000 )
                  (  0.0000000  1.0000000  0.0000000 )


      isym = 24     120 deg rotation - cart. axis [-1,-1,1]      

 cryst.   s(24) = (     0          1          0      )
                  (     0          0         -1      )
                  (    -1          0          0      )

 cart.    s(24) = (  0.0000000  0.0000000 -1.0000000 )
                  (  1.0000000  0.0000000  0.0000000 )
                  (  0.0000000 -1.0000000  0.0000000 )


      isym = 25     inversion                                    

 cryst.   s(25) = (    -1          0          0      )
                  (     0         -1          0      )
                  (     0          0         -1      )

 cart.    s(25) = ( -1.0000000  0.0000000  0.0000000 )
                  (  0.0000000 -1.0000000  0.0000000 )
                  (  0.0000000  0.0000000 -1.0000000 )


      isym = 26     inv. 180 deg rotation - cart. axis [0,0,1]   

 cryst.   s(26) = (     1          0          0      )
                  (     0          1          0      )
                  (     0          0         -1      )

 cart.    s(26) = (  1.0000000  0.0000000  0.0000000 )
                  (  0.0000000  1.0000000  0.0000000 )
                  (  0.0000000  0.0000000 -1.0000000 )


      isym = 27     inv. 180 deg rotation - cart. axis [0,1,0]   

 cryst.   s(27) = (     1          0          0      )
                  (     0         -1          0      )
                  (     0          0          1      )

 cart.    s(27) = (  1.0000000  0.0000000  0.0000000 )
                  (  0.0000000 -1.0000000  0.0000000 )
                  (  0.0000000  0.0000000  1.0000000 )


      isym = 28     inv. 180 deg rotation - cart. axis [1,0,0]   

 cryst.   s(28) = (    -1          0          0      )
                  (     0          1          0      )
                  (     0          0          1      )

 cart.    s(28) = ( -1.0000000  0.0000000  0.0000000 )
                  (  0.0000000  1.0000000  0.0000000 )
                  (  0.0000000  0.0000000  1.0000000 )


      isym = 29     inv. 180 deg rotation - cart. axis [1,1,0]   

 cryst.   s(29) = (     0         -1          0      )
                  (    -1          0          0      )
                  (     0          0          1      )

 cart.    s(29) = (  0.0000000 -1.0000000  0.0000000 )
                  ( -1.0000000  0.0000000  0.0000000 )
                  (  0.0000000  0.0000000  1.0000000 )


      isym = 30     inv. 180 deg rotation - cart. axis [1,-1,0]  

 cryst.   s(30) = (     0          1          0      )
                  (     1          0          0      )
                  (     0          0          1      )

 cart.    s(30) = (  0.0000000  1.0000000  0.0000000 )
                  (  1.0000000  0.0000000  0.0000000 )
                  (  0.0000000  0.0000000  1.0000000 )


      isym = 31     inv.  90 deg rotation - cart. axis [0,0,-1]  

 cryst.   s(31) = (     0          1          0      )
                  (    -1          0          0      )
                  (     0          0         -1      )

 cart.    s(31) = (  0.0000000 -1.0000000  0.0000000 )
                  (  1.0000000  0.0000000  0.0000000 )
                  (  0.0000000  0.0000000 -1.0000000 )


      isym = 32     inv.  90 deg rotation - cart. axis [0,0,1]   

 cryst.   s(32) = (     0         -1          0      )
                  (     1          0          0      )
                  (     0          0         -1      )

 cart.    s(32) = (  0.0000000  1.0000000  0.0000000 )
                  ( -1.0000000  0.0000000  0.0000000 )
                  (  0.0000000  0.0000000 -1.0000000 )


      isym = 33     inv. 180 deg rotation - cart. axis [1,0,1]   

 cryst.   s(33) = (     0          0         -1      )
                  (     0          1          0      )
                  (    -1          0          0      )

 cart.    s(33) = (  0.0000000  0.0000000 -1.0000000 )
                  (  0.0000000  1.0000000  0.0000000 )
                  ( -1.0000000  0.0000000  0.0000000 )


      isym = 34     inv. 180 deg rotation - cart. axis [-1,0,1]  

 cryst.   s(34) = (     0          0          1      )
                  (     0          1          0      )
                  (     1          0          0      )

 cart.    s(34) = (  0.0000000  0.0000000  1.0000000 )
                  (  0.0000000  1.0000000  0.0000000 )
                  (  1.0000000  0.0000000  0.0000000 )


      isym = 35     inv.  90 deg rotation - cart. axis [0,1,0]   

 cryst.   s(35) = (     0          0          1      )
                  (     0         -1          0      )
                  (    -1          0          0      )

 cart.    s(35) = (  0.0000000  0.0000000 -1.0000000 )
                  (  0.0000000 -1.0000000  0.0000000 )
                  (  1.0000000  0.0000000  0.0000000 )


      isym = 36     inv.  90 deg rotation - cart. axis [0,-1,0]  

 cryst.   s(36) = (     0          0         -1      )
                  (     0         -1          0      )
                  (     1          0          0      )

 cart.    s(36) = (  0.0000000  0.0000000  1.0000000 )
                  (  0.0000000 -1.0000000  0.0000000 )
                  ( -1.0000000  0.0000000  0.0000000 )


      isym = 37     inv. 180 deg rotation - cart. axis [0,1,1]   

 cryst.   s(37) = (     1          0          0      )
                  (     0          0         -1      )
                  (     0         -1          0      )

 cart.    s(37) = (  1.0000000  0.0000000  0.0000000 )
                  (  0.0000000  0.0000000 -1.0000000 )
                  (  0.0000000 -1.0000000  0.0000000 )


      isym = 38     inv. 180 deg rotation - cart. axis [0,1,-1]  

 cryst.   s(38) = (     1          0          0      )
                  (     0          0          1      )
                  (     0          1          0      )

 cart.    s(38) = (  1.0000000  0.0000000  0.0000000 )
                  (  0.0000000  0.0000000  1.0000000 )
                  (  0.0000000  1.0000000  0.0000000 )


      isym = 39     inv.  90 deg rotation - cart. axis [-1,0,0]  

 cryst.   s(39) = (    -1          0          0      )
                  (     0          0          1      )
                  (     0         -1          0      )

 cart.    s(39) = ( -1.0000000  0.0000000  0.0000000 )
                  (  0.0000000  0.0000000 -1.0000000 )
                  (  0.0000000  1.0000000  0.0000000 )


      isym = 40     inv.  90 deg rotation - cart. axis [1,0,0]   

 cryst.   s(40) = (    -1          0          0      )
                  (     0          0         -1      )
                  (     0          1          0      )

 cart.    s(40) = ( -1.0000000  0.0000000  0.0000000 )
                  (  0.0000000  0.0000000  1.0000000 )
                  (  0.0000000 -1.0000000  0.0000000 )


      isym = 41     inv. 120 deg rotation - cart. axis [-1,-1,-1]

 cryst.   s(41) = (     0          0         -1      )
                  (    -1          0          0      )
                  (     0         -1          0      )

 cart.    s(41) = (  0.0000000 -1.0000000  0.0000000 )
                  (  0.0000000  0.0000000 -1.0000000 )
                  ( -1.0000000  0.0000000  0.0000000 )


      isym = 42     inv. 120 deg rotation - cart. axis [-1,1,1]  

 cryst.   s(42) = (     0          0          1      )
                  (     1          0          0      )
                  (     0         -1          0      )

 cart.    s(42) = (  0.0000000  1.0000000  0.0000000 )
                  (  0.0000000  0.0000000 -1.0000000 )
                  (  1.0000000  0.0000000  0.0000000 )


      isym = 43     inv. 120 deg rotation - cart. axis [1,1,-1]  

 cryst.   s(43) = (     0          0          1      )
                  (    -1          0          0      )
                  (     0          1          0      )

 cart.    s(43) = (  0.0000000 -1.0000000  0.0000000 )
                  (  0.0000000  0.0000000  1.0000000 )
                  (  1.0000000  0.0000000  0.0000000 )


      isym = 44     inv. 120 deg rotation - cart. axis [1,-1,1]  

 cryst.   s(44) = (     0          0         -1      )
                  (     1          0          0      )
                  (     0          1          0      )

 cart.    s(44) = (  0.0000000  1.0000000  0.0000000 )
                  (  0.0000000  0.0000000  1.0000000 )
                  ( -1.0000000  0.0000000  0.0000000 )


      isym = 45     inv. 120 deg rotation - cart. axis [1,1,1]   

 cryst.   s(45) = (     0         -1          0      )
                  (     0          0         -1      )
                  (    -1          0          0      )

 cart.    s(45) = (  0.0000000  0.0000000 -1.0000000 )
                  ( -1.0000000  0.0000000  0.0000000 )
                  (  0.0000000 -1.0000000  0.0000000 )


      isym = 46     inv. 120 deg rotation - cart. axis [-1,1,-1] 

 cryst.   s(46) = (     0          1          0      )
                  (     0          0          1      )
                  (    -1          0          0      )

 cart.    s(46) = (  0.0000000  0.0000000 -1.0000000 )
                  (  1.0000000  0.0000000  0.0000000 )
                  (  0.0000000  1.0000000  0.0000000 )


      isym = 47     inv. 120 deg rotation - cart. axis [1,-1,-1] 

 cryst.   s(47) = (     0          1          0      )
                  (     0          0         -1      )
                  (     1          0          0      )

 cart.    s(47) = (  0.0000000  0.0000000  1.0000000 )
                  (  1.0000000  0.0000000  0.0000000 )
                  (  0.0000000 -1.0000000  0.0000000 )


      isym = 48     inv. 120 deg rotation - cart. axis [-1,-1,1] 

 cryst.   s(48) = (     0         -1          0      )
                  (     0          0          1      )
                  (     1          0          0      )

 cart.    s(48) = (  0.0000000  0.0000000  1.0000000 )
                  ( -1.0000000  0.0000000  0.0000000 )
                  (  0.0000000  1.0000000  0.0000000 )


   Cartesian axes

     site n.     atom                  positions (alat units)
         1        Zn     tau(   1) = (   0.0000000   0.0000000   0.0000000  )
         2        O      tau(   2) = (   0.5000000   0.5000000   0.5000000  )

   Crystallographic axes

     site n.     atom                  positions (cryst. coord.)
         1        Zn     tau(   1) = (  0.0000000  0.0000000  0.0000000  )
         2        O      tau(   2) = (  0.5000000  0.5000000  0.5000000  )

     number of k points=    84  Marzari-Vanderbilt smearing, width (Ry)=  0.0147
                       cart. coord. in units 2pi/alat
        k(    1) = (   0.0000000   0.0000000   0.0000000), wk =   0.0011574
        k(    2) = (   0.0000000   0.0000000   0.0833333), wk =   0.0069444
        k(    3) = (   0.0000000   0.0000000   0.1666667), wk =   0.0069444
        k(    4) = (   0.0000000   0.0000000   0.2500000), wk =   0.0069444
        k(    5) = (   0.0000000   0.0000000   0.3333333), wk =   0.0069444
        k(    6) = (   0.0000000   0.0000000   0.4166667), wk =   0.0069444
        k(    7) = (   0.0000000   0.0000000  -0.5000000), wk =   0.0034722
        k(    8) = (   0.0000000   0.0833333   0.0833333), wk =   0.0138889
        k(    9) = (   0.0000000   0.0833333   0.1666667), wk =   0.0277778
        k(   10) = (   0.0000000   0.0833333   0.2500000), wk =   0.0277778
        k(   11) = (   0.0000000   0.0833333   0.3333333), wk =   0.0277778
        k(   12) = (   0.0000000   0.0833333   0.4166667), wk =   0.0277778
        k(   13) = (   0.0000000   0.0833333  -0.5000000), wk =   0.0138889
        k(   14) = (   0.0000000   0.1666667   0.1666667), wk =   0.0138889
        k(   15) = (   0.0000000   0.1666667   0.2500000), wk =   0.0277778
        k(   16) = (   0.0000000   0.1666667   0.3333333), wk =   0.0277778
        k(   17) = (   0.0000000   0.1666667   0.4166667), wk =   0.0277778
        k(   18) = (   0.0000000   0.1666667  -0.5000000), wk =   0.0138889
        k(   19) = (   0.0000000   0.2500000   0.2500000), wk =   0.0138889
        k(   20) = (   0.0000000   0.2500000   0.3333333), wk =   0.0277778
        k(   21) = (   0.0000000   0.2500000   0.4166667), wk =   0.0277778
        k(   22) = (   0.0000000   0.2500000  -0.5000000), wk =   0.0138889
        k(   23) = (   0.0000000   0.3333333   0.3333333), wk =   0.0138889
        k(   24) = (   0.0000000   0.3333333   0.4166667), wk =   0.0277778
        k(   25) = (   0.0000000   0.3333333  -0.5000000), wk =   0.0138889
        k(   26) = (   0.0000000   0.4166667   0.4166667), wk =   0.0138889
        k(   27) = (   0.0000000   0.4166667  -0.5000000), wk =   0.0138889
        k(   28) = (   0.0000000  -0.5000000  -0.5000000), wk =   0.0034722
        k(   29) = (   0.0833333   0.0833333   0.0833333), wk =   0.0092593
        k(   30) = (   0.0833333   0.0833333   0.1666667), wk =   0.0277778
        k(   31) = (   0.0833333   0.0833333   0.2500000), wk =   0.0277778
        k(   32) = (   0.0833333   0.0833333   0.3333333), wk =   0.0277778
        k(   33) = (   0.0833333   0.0833333   0.4166667), wk =   0.0277778
        k(   34) = (   0.0833333   0.0833333  -0.5000000), wk =   0.0138889
        k(   35) = (   0.0833333   0.1666667   0.1666667), wk =   0.0277778
        k(   36) = (   0.0833333   0.1666667   0.2500000), wk =   0.0555556
        k(   37) = (   0.0833333   0.1666667   0.3333333), wk =   0.0555556
        k(   38) = (   0.0833333   0.1666667   0.4166667), wk =   0.0555556
        k(   39) = (   0.0833333   0.1666667  -0.5000000), wk =   0.0277778
        k(   40) = (   0.0833333   0.2500000   0.2500000), wk =   0.0277778
        k(   41) = (   0.0833333   0.2500000   0.3333333), wk =   0.0555556
        k(   42) = (   0.0833333   0.2500000   0.4166667), wk =   0.0555556
        k(   43) = (   0.0833333   0.2500000  -0.5000000), wk =   0.0277778
        k(   44) = (   0.0833333   0.3333333   0.3333333), wk =   0.0277778
        k(   45) = (   0.0833333   0.3333333   0.4166667), wk =   0.0555556
        k(   46) = (   0.0833333   0.3333333  -0.5000000), wk =   0.0277778
        k(   47) = (   0.0833333   0.4166667   0.4166667), wk =   0.0277778
        k(   48) = (   0.0833333   0.4166667  -0.5000000), wk =   0.0277778
        k(   49) = (   0.0833333  -0.5000000  -0.5000000), wk =   0.0069444
        k(   50) = (   0.1666667   0.1666667   0.1666667), wk =   0.0092593
        k(   51) = (   0.1666667   0.1666667   0.2500000), wk =   0.0277778
        k(   52) = (   0.1666667   0.1666667   0.3333333), wk =   0.0277778
        k(   53) = (   0.1666667   0.1666667   0.4166667), wk =   0.0277778
        k(   54) = (   0.1666667   0.1666667  -0.5000000), wk =   0.0138889
        k(   55) = (   0.1666667   0.2500000   0.2500000), wk =   0.0277778
        k(   56) = (   0.1666667   0.2500000   0.3333333), wk =   0.0555556
        k(   57) = (   0.1666667   0.2500000   0.4166667), wk =   0.0555556
        k(   58) = (   0.1666667   0.2500000  -0.5000000), wk =   0.0277778
        k(   59) = (   0.1666667   0.3333333   0.3333333), wk =   0.0277778
        k(   60) = (   0.1666667   0.3333333   0.4166667), wk =   0.0555556
        k(   61) = (   0.1666667   0.3333333  -0.5000000), wk =   0.0277778
        k(   62) = (   0.1666667   0.4166667   0.4166667), wk =   0.0277778
        k(   63) = (   0.1666667   0.4166667  -0.5000000), wk =   0.0277778
        k(   64) = (   0.1666667  -0.5000000  -0.5000000), wk =   0.0069444
        k(   65) = (   0.2500000   0.2500000   0.2500000), wk =   0.0092593
        k(   66) = (   0.2500000   0.2500000   0.3333333), wk =   0.0277778
        k(   67) = (   0.2500000   0.2500000   0.4166667), wk =   0.0277778
        k(   68) = (   0.2500000   0.2500000  -0.5000000), wk =   0.0138889
        k(   69) = (   0.2500000   0.3333333   0.3333333), wk =   0.0277778
        k(   70) = (   0.2500000   0.3333333   0.4166667), wk =   0.0555556
        k(   71) = (   0.2500000   0.3333333  -0.5000000), wk =   0.0277778
        k(   72) = (   0.2500000   0.4166667   0.4166667), wk =   0.0277778
        k(   73) = (   0.2500000   0.4166667  -0.5000000), wk =   0.0277778
        k(   74) = (   0.2500000  -0.5000000  -0.5000000), wk =   0.0069444
        k(   75) = (   0.3333333   0.3333333   0.3333333), wk =   0.0092593
        k(   76) = (   0.3333333   0.3333333   0.4166667), wk =   0.0277778
        k(   77) = (   0.3333333   0.3333333  -0.5000000), wk =   0.0138889
        k(   78) = (   0.3333333   0.4166667   0.4166667), wk =   0.0277778
        k(   79) = (   0.3333333   0.4166667  -0.5000000), wk =   0.0277778
        k(   80) = (   0.3333333  -0.5000000  -0.5000000), wk =   0.0069444
        k(   81) = (   0.4166667   0.4166667   0.4166667), wk =   0.0092593
        k(   82) = (   0.4166667   0.4166667  -0.5000000), wk =   0.0138889
        k(   83) = (   0.4166667  -0.5000000  -0.5000000), wk =   0.0069444
        k(   84) = (  -0.5000000  -0.5000000  -0.5000000), wk =   0.0011574

                       cryst. coord.
        k(    1) = (   0.0000000   0.0000000   0.0000000), wk =   0.0011574
        k(    2) = (   0.0000000   0.0000000   0.0833333), wk =   0.0069444
        k(    3) = (   0.0000000   0.0000000   0.1666667), wk =   0.0069444
        k(    4) = (   0.0000000   0.0000000   0.2500000), wk =   0.0069444
        k(    5) = (   0.0000000   0.0000000   0.3333333), wk =   0.0069444
        k(    6) = (   0.0000000   0.0000000   0.4166667), wk =   0.0069444
        k(    7) = (   0.0000000   0.0000000  -0.5000000), wk =   0.0034722
        k(    8) = (   0.0000000   0.0833333   0.0833333), wk =   0.0138889
        k(    9) = (   0.0000000   0.0833333   0.1666667), wk =   0.0277778
        k(   10) = (   0.0000000   0.0833333   0.2500000), wk =   0.0277778
        k(   11) = (   0.0000000   0.0833333   0.3333333), wk =   0.0277778
        k(   12) = (   0.0000000   0.0833333   0.4166667), wk =   0.0277778
        k(   13) = (   0.0000000   0.0833333  -0.5000000), wk =   0.0138889
        k(   14) = (   0.0000000   0.1666667   0.1666667), wk =   0.0138889
        k(   15) = (   0.0000000   0.1666667   0.2500000), wk =   0.0277778
        k(   16) = (   0.0000000   0.1666667   0.3333333), wk =   0.0277778
        k(   17) = (   0.0000000   0.1666667   0.4166667), wk =   0.0277778
        k(   18) = (   0.0000000   0.1666667  -0.5000000), wk =   0.0138889
        k(   19) = (   0.0000000   0.2500000   0.2500000), wk =   0.0138889
        k(   20) = (   0.0000000   0.2500000   0.3333333), wk =   0.0277778
        k(   21) = (   0.0000000   0.2500000   0.4166667), wk =   0.0277778
        k(   22) = (   0.0000000   0.2500000  -0.5000000), wk =   0.0138889
        k(   23) = (   0.0000000   0.3333333   0.3333333), wk =   0.0138889
        k(   24) = (   0.0000000   0.3333333   0.4166667), wk =   0.0277778
        k(   25) = (   0.0000000   0.3333333  -0.5000000), wk =   0.0138889
        k(   26) = (   0.0000000   0.4166667   0.4166667), wk =   0.0138889
        k(   27) = (   0.0000000   0.4166667  -0.5000000), wk =   0.0138889
        k(   28) = (   0.0000000  -0.5000000  -0.5000000), wk =   0.0034722
        k(   29) = (   0.0833333   0.0833333   0.0833333), wk =   0.0092593
        k(   30) = (   0.0833333   0.0833333   0.1666667), wk =   0.0277778
        k(   31) = (   0.0833333   0.0833333   0.2500000), wk =   0.0277778
        k(   32) = (   0.0833333   0.0833333   0.3333333), wk =   0.0277778
        k(   33) = (   0.0833333   0.0833333   0.4166667), wk =   0.0277778
        k(   34) = (   0.0833333   0.0833333  -0.5000000), wk =   0.0138889
        k(   35) = (   0.0833333   0.1666667   0.1666667), wk =   0.0277778
        k(   36) = (   0.0833333   0.1666667   0.2500000), wk =   0.0555556
        k(   37) = (   0.0833333   0.1666667   0.3333333), wk =   0.0555556
        k(   38) = (   0.0833333   0.1666667   0.4166667), wk =   0.0555556
        k(   39) = (   0.0833333   0.1666667  -0.5000000), wk =   0.0277778
        k(   40) = (   0.0833333   0.2500000   0.2500000), wk =   0.0277778
        k(   41) = (   0.0833333   0.2500000   0.3333333), wk =   0.0555556
        k(   42) = (   0.0833333   0.2500000   0.4166667), wk =   0.0555556
        k(   43) = (   0.0833333   0.2500000  -0.5000000), wk =   0.0277778
        k(   44) = (   0.0833333   0.3333333   0.3333333), wk =   0.0277778
        k(   45) = (   0.0833333   0.3333333   0.4166667), wk =   0.0555556
        k(   46) = (   0.0833333   0.3333333  -0.5000000), wk =   0.0277778
        k(   47) = (   0.0833333   0.4166667   0.4166667), wk =   0.0277778
        k(   48) = (   0.0833333   0.4166667  -0.5000000), wk =   0.0277778
        k(   49) = (   0.0833333  -0.5000000  -0.5000000), wk =   0.0069444
        k(   50) = (   0.1666667   0.1666667   0.1666667), wk =   0.0092593
        k(   51) = (   0.1666667   0.1666667   0.2500000), wk =   0.0277778
        k(   52) = (   0.1666667   0.1666667   0.3333333), wk =   0.0277778
        k(   53) = (   0.1666667   0.1666667   0.4166667), wk =   0.0277778
        k(   54) = (   0.1666667   0.1666667  -0.5000000), wk =   0.0138889
        k(   55) = (   0.1666667   0.2500000   0.2500000), wk =   0.0277778
        k(   56) = (   0.1666667   0.2500000   0.3333333), wk =   0.0555556
        k(   57) = (   0.1666667   0.2500000   0.4166667), wk =   0.0555556
        k(   58) = (   0.1666667   0.2500000  -0.5000000), wk =   0.0277778
        k(   59) = (   0.1666667   0.3333333   0.3333333), wk =   0.0277778
        k(   60) = (   0.1666667   0.3333333   0.4166667), wk =   0.0555556
        k(   61) = (   0.1666667   0.3333333  -0.5000000), wk =   0.0277778
        k(   62) = (   0.1666667   0.4166667   0.4166667), wk =   0.0277778
        k(   63) = (   0.1666667   0.4166667  -0.5000000), wk =   0.0277778
        k(   64) = (   0.1666667  -0.5000000  -0.5000000), wk =   0.0069444
        k(   65) = (   0.2500000   0.2500000   0.2500000), wk =   0.0092593
        k(   66) = (   0.2500000   0.2500000   0.3333333), wk =   0.0277778
        k(   67) = (   0.2500000   0.2500000   0.4166667), wk =   0.0277778
        k(   68) = (   0.2500000   0.2500000  -0.5000000), wk =   0.0138889
        k(   69) = (   0.2500000   0.3333333   0.3333333), wk =   0.0277778
        k(   70) = (   0.2500000   0.3333333   0.4166667), wk =   0.0555556
        k(   71) = (   0.2500000   0.3333333  -0.5000000), wk =   0.0277778
        k(   72) = (   0.2500000   0.4166667   0.4166667), wk =   0.0277778
        k(   73) = (   0.2500000   0.4166667  -0.5000000), wk =   0.0277778
        k(   74) = (   0.2500000  -0.5000000  -0.5000000), wk =   0.0069444
        k(   75) = (   0.3333333   0.3333333   0.3333333), wk =   0.0092593
        k(   76) = (   0.3333333   0.3333333   0.4166667), wk =   0.0277778
        k(   77) = (   0.3333333   0.3333333  -0.5000000), wk =   0.0138889
        k(   78) = (   0.3333333   0.4166667   0.4166667), wk =   0.0277778
        k(   79) = (   0.3333333   0.4166667  -0.5000000), wk =   0.0277778
        k(   80) = (   0.3333333  -0.5000000  -0.5000000), wk =   0.0069444
        k(   81) = (   0.4166667   0.4166667   0.4166667), wk =   0.0092593
        k(   82) = (   0.4166667   0.4166667  -0.5000000), wk =   0.0138889
        k(   83) = (   0.4166667  -0.5000000  -0.5000000), wk =   0.0069444
        k(   84) = (  -0.5000000  -0.5000000  -0.5000000), wk =   0.0011574

     Dense  grid:    30839 G-vectors     FFT dimensions: (  40,  40,  40)

     Smooth grid:    10827 G-vectors     FFT dimensions: (  27,  27,  27)

     Dynamical RAM for                 wfc:       0.35 MB

     Dynamical RAM for     wfc (w. buffer):      29.94 MB

     Dynamical RAM for           str. fact:       0.94 MB

     Dynamical RAM for           local pot:       0.00 MB

     Dynamical RAM for          nlocal pot:       0.54 MB

     Dynamical RAM for                qrad:       3.21 MB

     Dynamical RAM for          rho,v,vnew:       2.88 MB

     Dynamical RAM for               rhoin:       0.96 MB

     Dynamical RAM for            rho*nmix:       7.53 MB

     Dynamical RAM for           G-vectors:       1.85 MB

     Dynamical RAM for          h,s,v(r/c):       0.05 MB

     Dynamical RAM for          <psi|beta>:       0.01 MB

     Dynamical RAM for                 psi:       0.70 MB

     Dynamical RAM for                hpsi:       0.70 MB

     Dynamical RAM for                spsi:       0.70 MB

     Dynamical RAM for      wfcinit/wfcrot:       0.71 MB

     Dynamical RAM for           addusdens:      88.00 MB

     Dynamical RAM for          addusforce:      88.24 MB

     Dynamical RAM for         addusstress:      94.58 MB

     Estimated static dynamical RAM per process >      44.17 MB

     Estimated max dynamical RAM per process >     146.28 MB

     Check: negative core charge=   -0.000002

     Initial potential from superposition of free atoms

     starting charge      25.9999, renormalised to      26.0000
     Starting wfcs are   17 randomized atomic wfcs
     Checking if some PAW data can be deallocated... 

     total cpu time spent up to now is       15.7 secs

     Self-consistent Calculation

     iteration #  1     ecut=    50.00 Ry     beta= 0.40
     Davidson diagonalization with overlap

---- Real-time Memory Report at c_bands before calling an iterative solver
           135 MiB given to the printing process from OS
             0 MiB allocation reported by mallinfo(arena+hblkhd)
          4327 MiB available memory on the node where the printing process lives
------------------
     ethr =  1.00E-02,  avg # of iterations =  2.3

     total cpu time spent up to now is       29.7 secs

     WARNING: integrated charge=    26.00028880, expected=    26.00000000

     total energy              =    -502.74957014 Ry
     estimated scf accuracy    <       0.82708630 Ry

     iteration #  2     ecut=    50.00 Ry     beta= 0.40
     Davidson diagonalization with overlap

---- Real-time Memory Report at c_bands before calling an iterative solver
           191 MiB given to the printing process from OS
             0 MiB allocation reported by mallinfo(arena+hblkhd)
          4305 MiB available memory on the node where the printing process lives
------------------
     ethr =  3.18E-03,  avg # of iterations =  2.0

     total cpu time spent up to now is       53.8 secs

     WARNING: integrated charge=    26.00023003, expected=    26.00000000

     total energy              =    -502.91519971 Ry
     estimated scf accuracy    <       0.77245877 Ry

     iteration #  3     ecut=    50.00 Ry     beta= 0.40
     Davidson diagonalization with overlap

---- Real-time Memory Report at c_bands before calling an iterative solver
           193 MiB given to the printing process from OS
             0 MiB allocation reported by mallinfo(arena+hblkhd)
          4299 MiB available memory on the node where the printing process lives
------------------
     ethr =  2.97E-03,  avg # of iterations =  2.0

     total cpu time spent up to now is       75.3 secs

     WARNING: integrated charge=    25.99995341, expected=    26.00000000

     total energy              =    -503.03907965 Ry
     estimated scf accuracy    <       0.01922942 Ry

     iteration #  4     ecut=    50.00 Ry     beta= 0.40
     Davidson diagonalization with overlap

---- Real-time Memory Report at c_bands before calling an iterative solver
           193 MiB given to the printing process from OS
             0 MiB allocation reported by mallinfo(arena+hblkhd)
          4303 MiB available memory on the node where the printing process lives
------------------
     ethr =  7.40E-05,  avg # of iterations =  2.0

     total cpu time spent up to now is       89.5 secs

     WARNING: integrated charge=    26.00001416, expected=    26.00000000

     total energy              =    -503.04210214 Ry
     estimated scf accuracy    <       0.01345334 Ry

     iteration #  5     ecut=    50.00 Ry     beta= 0.40
     Davidson diagonalization with overlap

---- Real-time Memory Report at c_bands before calling an iterative solver
           193 MiB given to the printing process from OS
             0 MiB allocation reported by mallinfo(arena+hblkhd)
          4298 MiB available memory on the node where the printing process lives
------------------
     ethr =  5.17E-05,  avg # of iterations =  1.2

     total cpu time spent up to now is      112.0 secs

     WARNING: integrated charge=    26.00002635, expected=    26.00000000

     total energy              =    -503.04355763 Ry
     estimated scf accuracy    <       0.00015816 Ry

     iteration #  6     ecut=    50.00 Ry     beta= 0.40
     Davidson diagonalization with overlap

---- Real-time Memory Report at c_bands before calling an iterative solver
           193 MiB given to the printing process from OS
             0 MiB allocation reported by mallinfo(arena+hblkhd)
          4298 MiB available memory on the node where the printing process lives
------------------
     ethr =  6.08E-07,  avg # of iterations =  2.2

     total cpu time spent up to now is      138.5 secs

     WARNING: integrated charge=    25.99998962, expected=    26.00000000

     total energy              =    -503.04353836 Ry
     estimated scf accuracy    <       0.00031180 Ry

     iteration #  7     ecut=    50.00 Ry     beta= 0.40
     Davidson diagonalization with overlap

---- Real-time Memory Report at c_bands before calling an iterative solver
           194 MiB given to the printing process from OS
             0 MiB allocation reported by mallinfo(arena+hblkhd)
          4305 MiB available memory on the node where the printing process lives
------------------
     ethr =  6.08E-07,  avg # of iterations =  2.1

     total cpu time spent up to now is      179.3 secs

     WARNING: integrated charge=    25.99999625, expected=    26.00000000

     total energy              =    -503.04361176 Ry
     estimated scf accuracy    <       0.00012250 Ry

     iteration #  8     ecut=    50.00 Ry     beta= 0.40
     Davidson diagonalization with overlap

---- Real-time Memory Report at c_bands before calling an iterative solver
           194 MiB given to the printing process from OS
             0 MiB allocation reported by mallinfo(arena+hblkhd)
          4299 MiB available memory on the node where the printing process lives
------------------
     ethr =  4.71E-07,  avg # of iterations =  1.1

     total cpu time spent up to now is      204.0 secs

     total energy              =    -503.04361360 Ry
     estimated scf accuracy    <       0.00001440 Ry

     iteration #  9     ecut=    50.00 Ry     beta= 0.40
     Davidson diagonalization with overlap

---- Real-time Memory Report at c_bands before calling an iterative solver
           194 MiB given to the printing process from OS
             0 MiB allocation reported by mallinfo(arena+hblkhd)
          4299 MiB available memory on the node where the printing process lives
------------------
     ethr =  5.54E-08,  avg # of iterations =  1.4

     total cpu time spent up to now is      230.8 secs

     total energy              =    -503.04361574 Ry
     estimated scf accuracy    <       0.00000023 Ry

     iteration # 10     ecut=    50.00 Ry     beta= 0.40
     Davidson diagonalization with overlap

---- Real-time Memory Report at c_bands before calling an iterative solver
           195 MiB given to the printing process from OS
             0 MiB allocation reported by mallinfo(arena+hblkhd)
          4292 MiB available memory on the node where the printing process lives
------------------
     ethr =  8.96E-10,  avg # of iterations =  2.0

     total cpu time spent up to now is      271.6 secs

     total energy              =    -503.04361578 Ry
     estimated scf accuracy    <       0.00000002 Ry

     iteration # 11     ecut=    50.00 Ry     beta= 0.40
     Davidson diagonalization with overlap

---- Real-time Memory Report at c_bands before calling an iterative solver
           195 MiB given to the printing process from OS
             0 MiB allocation reported by mallinfo(arena+hblkhd)
          4301 MiB available memory on the node where the printing process lives
------------------
     ethr =  9.45E-11,  avg # of iterations =  2.0

     total cpu time spent up to now is      322.9 secs

     End of self-consistent calculation

          k = 0.0000 0.0000 0.0000 (  1357 PWs)   bands (ev):

  -120.3920 -74.5739 -74.5739 -74.5739 -11.0115  -1.4916  -1.4916  -1.1700
    -1.1700  -1.1700   2.3035   4.2836   4.2836   4.2836  16.0056  16.0056
    16.0056

     occupation numbers 
     1.0000   1.0000   1.0000   1.0000   1.0000   1.0000   1.0000   1.0000
     1.0000   1.0000   1.0000   1.0074   1.0074   1.0074   0.0000   0.0000
     0.0000

          k = 0.0000 0.0000 0.0833 (  1357 PWs)   bands (ev):

  -120.3920 -74.5740 -74.5739 -74.5739 -10.9924  -1.4898  -1.4797  -1.1785
    -1.1785  -1.1694   2.1536   4.3099   4.3099   4.4419  14.5705  15.9966
    15.9966

     occupation numbers 
     1.0000   1.0000   1.0000   1.0000   1.0000   1.0000   1.0000   1.0000
     1.0000   1.0000   1.0000   1.0117   1.0117   1.0592   0.0000   0.0000
     0.0000

          k = 0.0000 0.0000 0.1667 (  1362 PWs)   bands (ev):

  -120.3920 -74.5742 -74.5739 -74.5739 -10.9394  -1.4847  -1.4507  -1.2014
    -1.2014  -1.1678   1.8135   4.3824   4.3824   4.8341  13.0201  15.9675
    15.9675

     occupation numbers 
     1.0000   1.0000   1.0000   1.0000   1.0000   1.0000   1.0000   1.0000
     1.0000   1.0000   1.0000   1.0327   1.0327   0.3007   0.0000   0.0000
     0.0000

          k = 0.0000 0.0000 0.2500 (  1346 PWs)   bands (ev):

  -120.3919 -74.5744 -74.5738 -74.5738 -10.8653  -1.4777  -1.4212  -1.2321
    -1.2321  -1.1656   1.4426   4.4827   4.4827   5.3684  11.5300  15.9167
    15.9167

     occupation numbers 
     1.0000   1.0000   1.0000   1.0000   1.0000   1.0000   1.0000   1.0000
     1.0000   1.0000   1.0000   1.0763   1.0763   0.0000   0.0000   0.0000
     0.0000

          k = 0.0000 0.0000 0.3333 (  1358 PWs)   bands (ev):

  -120.3919 -74.5748 -74.5738 -74.5738 -10.7890  -1.4707  -1.4071  -1.2623
    -1.2623  -1.1634   1.1397   4.5846   4.5846   6.0255  10.1437  15.8522
    15.8522

     occupation numbers 
     1.0000   1.0000   1.0000   1.0000   1.0000   1.0000   1.0000   1.0000
     1.0000   1.0000   1.0000   1.0509   1.0509   0.0000   0.0000   0.0000
     0.0000

          k = 0.0000 0.0000 0.4167 (  1370 PWs)   bands (ev):

  -120.3919 -74.5750 -74.5739 -74.5739 -10.7316  -1.4657  -1.4096  -1.2841
    -1.2841  -1.1618   0.9519   4.6603   4.6603   6.8142   8.8949  15.7960
    15.7960

     occupation numbers 
     1.0000   1.0000   1.0000   1.0000   1.0000   1.0000   1.0000   1.0000
     1.0000   1.0000   1.0000   0.9024   0.9024   0.0000   0.0000   0.0000
     0.0000

          k = 0.0000 0.0000-0.5000 (  1342 PWs)   bands (ev):

  -120.3919 -74.5749 -74.5737 -74.5737 -10.7103  -1.4638  -1.4136  -1.2919
    -1.2919  -1.1611   0.8899   4.6883   4.6883   7.6037   7.9481  15.7734
    15.7734

     occupation numbers 
     1.0000   1.0000   1.0000   1.0000   1.0000   1.0000   1.0000   1.0000
     1.0000   1.0000   1.0000   0.8170   0.8170   0.0000   0.0000   0.0000
     0.0000

          k = 0.0000 0.0833 0.0833 (  1355 PWs)   bands (ev):

  -120.3920 -74.5740 -74.5739 -74.5739 -10.9737  -1.4831  -1.4720  -1.1866
    -1.1804  -1.1750   2.0523   4.1653   4.3349   4.7202  14.4636  14.8011
    15.9946

     occupation numbers 
     1.0000   1.0000   1.0000   1.0000   1.0000   1.0000   1.0000   1.0000
     1.0000   1.0000   1.0000   1.0006   1.0172   0.7055   0.0000   0.0000
     0.0000

          k = 0.0000 0.0833 0.1667 (  1347 PWs)   bands (ev):

  -120.3920 -74.5741 -74.5739 -74.5739 -10.9217  -1.4762  -1.4430  -1.2086
    -1.2009  -1.1747   1.7911   4.1230   4.4036   5.1400  13.0641  14.7350
    15.9853

     occupation numbers 
     1.0000   1.0000   1.0000   1.0000   1.0000   1.0000   1.0000   1.0000
     1.0000   1.0000   1.0000   1.0002   1.0415   0.0017   0.0000   0.0000
     0.0000

          k = 0.0000 0.0833 0.2500 (  1350 PWs)   bands (ev):

  -120.3919 -74.5744 -74.5739 -74.5738 -10.8491  -1.4689  -1.4109  -1.2376
    -1.2306  -1.1722   1.4715   4.1962   4.4986   5.6339  11.5780  14.8411
    15.9622

     occupation numbers 
     1.0000   1.0000   1.0000   1.0000   1.0000   1.0000   1.0000   1.0000
     1.0000   1.0000   1.0000   1.0013   1.0808   0.0000   0.0000   0.0000
     0.0000

          k = 0.0000 0.0833 0.3333 (  1354 PWs)   bands (ev):

  -120.3919 -74.5747 -74.5739 -74.5738 -10.7744  -1.4618  -1.3931  -1.2655
    -1.2600  -1.1696   1.1925   4.3181   4.5950   6.2190  10.2039  14.9454
    15.9259

     occupation numbers 
     1.0000   1.0000   1.0000   1.0000   1.0000   1.0000   1.0000   1.0000
     1.0000   1.0000   1.0000   1.0133   1.0382   0.0000   0.0000   0.0000
     0.0000

          k = 0.0000 0.0833 0.4167 (  1365 PWs)   bands (ev):

  -120.3919 -74.5750 -74.5739 -74.5738 -10.7183  -1.4567  -1.3911  -1.2858
    -1.2812  -1.1677   1.0130   4.4229   4.6665   6.9191   8.9946  15.0163
    15.8904

     occupation numbers 
     1.0000   1.0000   1.0000   1.0000   1.0000   1.0000   1.0000   1.0000
     1.0000   1.0000   1.0000   1.0503   0.8848   0.0000   0.0000   0.0000
     0.0000

          k = 0.0000 0.0833-0.5000 (  1370 PWs)   bands (ev):

  -120.3919 -74.5751 -74.5739 -74.5739 -10.6974  -1.4548  -1.3930  -1.2935
    -1.2889  -1.1670   0.9526   4.4635   4.6929   7.5287   8.2089  15.0406
    15.8754

     occupation numbers 
     1.0000   1.0000   1.0000   1.0000   1.0000   1.0000   1.0000   1.0000
     1.0000   1.0000   1.0000   1.0689   0.8015   0.0000   0.0000   0.0000
     0.0000

          k = 0.0000 0.1667 0.1667 (  1348 PWs)   bands (ev):

  -120.3919 -74.5741 -74.5741 -74.5738 -10.8728  -1.4634  -1.4148  -1.2276
    -1.2045  -1.1888   1.7057   3.8429   4.4618   5.5944  13.1587  13.2073
    16.0318

     occupation numbers 
     1.0000   1.0000   1.0000   1.0000   1.0000   1.0000   1.0000   1.0000
     1.0000   1.0000   1.0000   1.0000   1.0682   0.0000   0.0000   0.0000
     0.0000

          k = 0.0000 0.1667 0.2500 (  1356 PWs)   bands (ev):

  -120.3919 -74.5745 -74.5741 -74.5738 -10.8044  -1.4540  -1.3762  -1.2517
    -1.2273  -1.1897   1.5413   3.7404   4.5421   6.0540  11.6962  13.3642
    16.0889

     occupation numbers 
     1.0000   1.0000   1.0000   1.0000   1.0000   1.0000   1.0000   1.0000
     1.0000   1.0000   1.0000   1.0000   1.0801   0.0000   0.0000   0.0000
     0.0000

          k = 0.0000 0.1667 0.3333 (  1359 PWs)   bands (ev):

  -120.3919 -74.5748 -74.5741 -74.5738 -10.7342  -1.4461  -1.3480  -1.2735
    -1.2538  -1.1864   1.3456   3.7967   4.6234   6.5226  10.3793  13.5542
    16.1371

     occupation numbers 
     1.0000   1.0000   1.0000   1.0000   1.0000   1.0000   1.0000   1.0000
     1.0000   1.0000   1.0000   1.0000   0.9912   0.0000   0.0000   0.0000
     0.0000

          k = 0.0000 0.1667 0.4167 (  1353 PWs)   bands (ev):

  -120.3919 -74.5750 -74.5740 -74.5738 -10.6815  -1.4402  -1.3350  -1.2898
    -1.2733  -1.1837   1.1971   3.9053   4.6835   7.0024   9.3261  13.7061
    16.1654

     occupation numbers 
     1.0000   1.0000   1.0000   1.0000   1.0000   1.0000   1.0000   1.0000
     1.0000   1.0000   1.0000   1.0000   0.8326   0.0000   0.0000   0.0000
     0.0000

          k = 0.0000 0.1667-0.5000 (  1356 PWs)   bands (ev):

  -120.3919 -74.5751 -74.5740 -74.5738 -10.6620  -1.4379  -1.3310  -1.2972
    -1.2804  -1.1826   1.1433   3.9569   4.7057   7.2925   8.8311  13.7653
    16.1741

     occupation numbers 
     1.0000   1.0000   1.0000   1.0000   1.0000   1.0000   1.0000   1.0000
     1.0000   1.0000   1.0000   1.0000   0.7576   0.0000   0.0000   0.0000
     0.0000

          k = 0.0000 0.2500 0.2500 (  1364 PWs)   bands (ev):

  -120.3919 -74.5745 -74.5744 -74.5738 -10.7420  -1.4421  -1.3261  -1.2692
    -1.2282  -1.2077   1.5964   3.4029   4.6020   6.4171  11.5711  12.3126
    16.2679

     occupation numbers 
     1.0000   1.0000   1.0000   1.0000   1.0000   1.0000   1.0000   1.0000
     1.0000   1.0000   1.0000   1.0000   1.0284   0.0000   0.0000   0.0000
     0.0000

          k = 0.0000 0.2500 0.3333 (  1358 PWs)   bands (ev):

  -120.3919 -74.5747 -74.5744 -74.5738 -10.6782  -1.4319  -1.2892  -1.2776
    -1.2458  -1.2087   1.5734   3.2933   4.6623   6.6798  10.6251  12.3620
    16.4534

     occupation numbers 
     1.0000   1.0000   1.0000   1.0000   1.0000   1.0000   1.0000   1.0000
     1.0000   1.0000   1.0000   1.0000   0.8968   0.0000   0.0000   0.0000
     0.0000

          k = 0.0000 0.2500 0.4167 (  1352 PWs)   bands (ev):

  -120.3919 -74.5749 -74.5744 -74.5737 -10.6304  -1.4234  -1.2971  -1.2626
    -1.2547  -1.2053   1.4992   3.3517   4.7069   6.8307   9.8707  12.5561
    16.5931

     occupation numbers 
     1.0000   1.0000   1.0000   1.0000   1.0000   1.0000   1.0000   1.0000
     1.0000   1.0000   1.0000   1.0000   0.7532   0.0000   0.0000   0.0000
     0.0000

          k = 0.0000 0.2500-0.5000 (  1360 PWs)   bands (ev):

  -120.3919 -74.5751 -74.5744 -74.5737 -10.6127  -1.4198  -1.3009  -1.2690
    -1.2473  -1.2039   1.4619   3.4017   4.7233   6.8774   9.5967  12.6401
    16.6449

     occupation numbers 
     1.0000   1.0000   1.0000   1.0000   1.0000   1.0000   1.0000   1.0000
     1.0000   1.0000   1.0000   1.0000   0.6939   0.0000   0.0000   0.0000
     0.0000

          k = 0.0000 0.3333 0.3333 (  1346 PWs)   bands (ev):

  -120.3919 -74.5747 -74.5746 -74.5737 -10.6210  -1.4186  -1.2935  -1.2418
    -1.2268  -1.2219   1.7951   2.9612   4.7016   6.6198  10.7214  11.7181
    16.8119

     occupation numbers 
     1.0000   1.0000   1.0000   1.0000   1.0000   1.0000   1.0000   1.0000
     1.0000   1.0000   1.0000   1.0000   0.7718   0.0000   0.0000   0.0000
     0.0000

          k = 0.0000 0.3333 0.4167 (  1353 PWs)   bands (ev):

  -120.3919 -74.5749 -74.5747 -74.5736 -10.5783  -1.4077  -1.2999  -1.2520
    -1.2267  -1.1823   1.8841   2.8946   4.7306   6.4240  10.4899  11.7543
    17.1111

     occupation numbers 
     1.0000   1.0000   1.0000   1.0000   1.0000   1.0000   1.0000   1.0000
     1.0000   1.0000   1.0000   1.0000   0.6670   0.0000   0.0000   0.0000
     0.0000

          k = 0.0000 0.3333-0.5000 (  1354 PWs)   bands (ev):

  -120.3919 -74.5750 -74.5747 -74.5737 -10.5625  -1.4032  -1.3023  -1.2575
    -1.2250  -1.1689   1.8828   2.9312   4.7412   6.3125  10.3694  11.8484
    17.2308

     occupation numbers 
     1.0000   1.0000   1.0000   1.0000   1.0000   1.0000   1.0000   1.0000
     1.0000   1.0000   1.0000   1.0000   0.6271   0.0000   0.0000   0.0000
     0.0000

          k = 0.0000 0.4167 0.4167 (  1354 PWs)   bands (ev):

  -120.3919 -74.5749 -74.5749 -74.5736 -10.5395  -1.3960  -1.3014  -1.2457
    -1.2408  -1.1326   2.2250   2.6336   4.7481   5.9647  10.9501  11.3773
    16.8208

     occupation numbers 
     1.0000   1.0000   1.0000   1.0000   1.0000   1.0000   1.0000   1.0000
     1.0000   1.0000   1.0000   1.0000   0.6014   0.0000   0.0000   0.0000
     0.0000

          k = 0.0000 0.4167-0.5000 (  1348 PWs)   bands (ev):

  -120.3919 -74.5750 -74.5748 -74.5736 -10.5252  -1.3915  -1.3018  -1.2490
    -1.2403  -1.1152   2.3089   2.6204   4.7545   5.7494  11.0027  11.4054
    16.5151

     occupation numbers 
     1.0000   1.0000   1.0000   1.0000   1.0000   1.0000   1.0000   1.0000
     1.0000   1.0000   1.0000   1.0000   0.5771   0.0000   0.0000   0.0000
     0.0000

          k = 0.0000-0.5000-0.5000 (  1356 PWs)   bands (ev):

  -120.3919 -74.5750 -74.5750 -74.5736 -10.5114  -1.3873  -1.3012  -1.2459
    -1.2459  -1.0964   2.5120   2.5120   4.7594   5.4898  11.2659  11.2659
    16.1853

     occupation numbers 
     1.0000   1.0000   1.0000   1.0000   1.0000   1.0000   1.0000   1.0000
     1.0000   1.0000   1.0000   1.0000   0.5587   0.0000   0.0000   0.0000
     0.0000

          k = 0.0833 0.0833 0.0833 (  1352 PWs)   bands (ev):

  -120.3920 -74.5740 -74.5740 -74.5739 -10.9553  -1.4701  -1.4701  -1.1894
    -1.1839  -1.1839   1.9790   4.1943   4.1943   4.9584  14.4837  14.4837
    15.2258

     occupation numbers 
     1.0000   1.0000   1.0000   1.0000   1.0000   1.0000   1.0000   1.0000
     1.0000   1.0000   1.0000   1.0012   1.0012   0.0620   0.0000   0.0000
     0.0000

          k = 0.0833 0.0833 0.1667 (  1345 PWs)   bands (ev):

  -120.3920 -74.5741 -74.5739 -74.5739 -10.9043  -1.4649  -1.4379  -1.2079
    -1.2074  -1.1824   1.7745   4.0856   4.2740   5.3647  13.1067  14.5363
    15.1796

     occupation numbers 
     1.0000   1.0000   1.0000   1.0000   1.0000   1.0000   1.0000   1.0000
     1.0000   1.0000   1.0000   1.0001   1.0063   0.0000   0.0000   0.0000
     0.0000

          k = 0.0833 0.0833 0.2500 (  1354 PWs)   bands (ev):

  -120.3919 -74.5744 -74.5739 -74.5739 -10.8331  -1.4577  -1.4033  -1.2401
    -1.2320  -1.1794   1.5001   4.1082   4.3847   5.8271  11.6319  14.6012
    15.3290

     occupation numbers 
     1.0000   1.0000   1.0000   1.0000   1.0000   1.0000   1.0000   1.0000
     1.0000   1.0000   1.0000   1.0001   1.0336   0.0000   0.0000   0.0000
     0.0000

          k = 0.0833 0.0833 0.3333 (  1357 PWs)   bands (ev):

  -120.3919 -74.5748 -74.5739 -74.5739 -10.7599  -1.4502  -1.3822  -1.2720
    -1.2551  -1.1763   1.2451   4.2096   4.4975   6.3592  10.2734  14.6549
    15.4894

     occupation numbers 
     1.0000   1.0000   1.0000   1.0000   1.0000   1.0000   1.0000   1.0000
     1.0000   1.0000   1.0000   1.0017   1.0805   0.0000   0.0000   0.0000
     0.0000

          k = 0.0833 0.0833 0.4167 (  1363 PWs)   bands (ev):

  -120.3919 -74.5750 -74.5739 -74.5739 -10.7050  -1.4445  -1.3769  -1.2952
    -1.2722  -1.1740   1.0752   4.3120   4.5817   6.9826   9.1073  14.6847
    15.6069

     occupation numbers 
     1.0000   1.0000   1.0000   1.0000   1.0000   1.0000   1.0000   1.0000
     1.0000   1.0000   1.0000   1.0121   1.0541   0.0000   0.0000   0.0000
     0.0000

          k = 0.0833 0.0833-0.5000 (  1362 PWs)   bands (ev):

  -120.3919 -74.5751 -74.5739 -74.5738 -10.6846  -1.4424  -1.3771  -1.3037
    -1.2788  -1.1732   1.0170   4.3539   4.6128   7.4647   8.4357  14.6933
    15.6498

     occupation numbers 
     1.0000   1.0000   1.0000   1.0000   1.0000   1.0000   1.0000   1.0000
     1.0000   1.0000   1.0000   1.0226   1.0108   0.0000   0.0000   0.0000
     0.0000

          k = 0.0833 0.1667 0.1667 (  1348 PWs)   bands (ev):

  -120.3919 -74.5741 -74.5741 -74.5739 -10.8562  -1.4479  -1.4130  -1.2265
    -1.2087  -1.1987   1.7076   3.8791   4.2871   5.7603  13.2021  13.2437
    15.0791

     occupation numbers 
     1.0000   1.0000   1.0000   1.0000   1.0000   1.0000   1.0000   1.0000
     1.0000   1.0000   1.0000   1.0000   1.0079   0.0000   0.0000   0.0000
     0.0000

          k = 0.0833 0.1667 0.2500 (  1354 PWs)   bands (ev):

  -120.3919 -74.5744 -74.5741 -74.5739 -10.7890  -1.4379  -1.3736  -1.2536
    -1.2292  -1.1982   1.5705   3.7625   4.3832   6.1722  11.7677  13.3634
    15.2576

     occupation numbers 
     1.0000   1.0000   1.0000   1.0000   1.0000   1.0000   1.0000   1.0000
     1.0000   1.0000   1.0000   1.0000   1.0330   0.0000   0.0000   0.0000
     0.0000

          k = 0.0833 0.1667 0.3333 (  1358 PWs)   bands (ev):

  -120.3919 -74.5748 -74.5741 -74.5739 -10.7201  -1.4296  -1.3437  -1.2826
    -1.2488  -1.1942   1.3979   3.7949   4.4872   6.5921  10.4675  13.4940
    15.4820

     occupation numbers 
     1.0000   1.0000   1.0000   1.0000   1.0000   1.0000   1.0000   1.0000
     1.0000   1.0000   1.0000   1.0000   1.0778   0.0000   0.0000   0.0000
     0.0000

          k = 0.0833 0.1667 0.4167 (  1356 PWs)   bands (ev):

  -120.3919 -74.5750 -74.5741 -74.5738 -10.6684  -1.4231  -1.3292  -1.3051
    -1.2626  -1.1909   1.2618   3.8875   4.5655   7.0158   9.4470  13.5804
    15.6749

     occupation numbers 
     1.0000   1.0000   1.0000   1.0000   1.0000   1.0000   1.0000   1.0000
     1.0000   1.0000   1.0000   1.0000   1.0683   0.0000   0.0000   0.0000
     0.0000

          k = 0.0833 0.1667-0.5000 (  1354 PWs)   bands (ev):

  -120.3919 -74.5751 -74.5741 -74.5738 -10.6492  -1.4204  -1.3244  -1.3141
    -1.2685  -1.1896   1.2117   3.9338   4.5946   7.2593   8.9903  13.6099
    15.7533

     occupation numbers 
     1.0000   1.0000   1.0000   1.0000   1.0000   1.0000   1.0000   1.0000
     1.0000   1.0000   1.0000   1.0000   1.0387   0.0000   0.0000   0.0000
     0.0000

          k = 0.0833 0.2500 0.2500 (  1352 PWs)   bands (ev):

  -120.3919 -74.5744 -74.5744 -74.5738 -10.7275  -1.4243  -1.3257  -1.2732
    -1.2273  -1.2185   1.6325   3.4498   4.4547   6.4825  11.6981  12.2743
    15.4607

     occupation numbers 
     1.0000   1.0000   1.0000   1.0000   1.0000   1.0000   1.0000   1.0000
     1.0000   1.0000   1.0000   1.0000   1.0651   0.0000   0.0000   0.0000
     0.0000

          k = 0.0833 0.2500 0.3333 (  1357 PWs)   bands (ev):

  -120.3919 -74.5747 -74.5744 -74.5738 -10.6646  -1.4137  -1.2953  -1.2833
    -1.2425  -1.2167   1.6254   3.3344   4.5349   6.7100  10.7234  12.3185
    15.7312

     occupation numbers 
     1.0000   1.0000   1.0000   1.0000   1.0000   1.0000   1.0000   1.0000
     1.0000   1.0000   1.0000   1.0000   1.0819   0.0000   0.0000   0.0000
     0.0000

          k = 0.0833 0.2500 0.4167 (  1359 PWs)   bands (ev):

  -120.3919 -74.5749 -74.5744 -74.5738 -10.6175  -1.4047  -1.3128  -1.2647
    -1.2508  -1.2105   1.5663   3.3789   4.5956   6.8436   9.9594  12.4675
    15.9847

     occupation numbers 
     1.0000   1.0000   1.0000   1.0000   1.0000   1.0000   1.0000   1.0000
     1.0000   1.0000   1.0000   1.0000   1.0374   0.0000   0.0000   0.0000
     0.0000

          k = 0.0833 0.2500-0.5000 (  1360 PWs)   bands (ev):

  -120.3919 -74.5750 -74.5744 -74.5738 -10.6001  -1.4006  -1.3204  -1.2615
    -1.2522  -1.2071   1.5345   3.4227   4.6181   6.8862   9.6824  12.5262
    16.0970

     occupation numbers 
     1.0000   1.0000   1.0000   1.0000   1.0000   1.0000   1.0000   1.0000
     1.0000   1.0000   1.0000   1.0000   1.0012   0.0000   0.0000   0.0000
     0.0000

          k = 0.0833 0.3333 0.3333 (  1352 PWs)   bands (ev):

  -120.3919 -74.5747 -74.5747 -74.5738 -10.6079  -1.4005  -1.3052  -1.2494
    -1.2407  -1.2128   1.8506   3.0193   4.5900   6.6457  10.8016  11.6482
    16.0605

     occupation numbers 
     1.0000   1.0000   1.0000   1.0000   1.0000   1.0000   1.0000   1.0000
     1.0000   1.0000   1.0000   1.0000   1.0446   0.0000   0.0000   0.0000
     0.0000

          k = 0.0833 0.3333 0.4167 (  1359 PWs)   bands (ev):

  -120.3919 -74.5749 -74.5747 -74.5738 -10.5657  -1.3890  -1.3155  -1.2561
    -1.2425  -1.1776   1.9516   2.9488   4.6319   6.4644  10.5158  11.6678
    16.3805

     occupation numbers 
     1.0000   1.0000   1.0000   1.0000   1.0000   1.0000   1.0000   1.0000
     1.0000   1.0000   1.0000   1.0000   0.9735   0.0000   0.0000   0.0000
     0.0000

          k = 0.0833 0.3333-0.5000 (  1352 PWs)   bands (ev):

  -120.3919 -74.5750 -74.5746 -74.5737 -10.5500  -1.3836  -1.3205  -1.2594
    -1.2429  -1.1645   1.9573   2.9799   4.6474   6.3614  10.3781  11.7435
    16.5405

     occupation numbers 
     1.0000   1.0000   1.0000   1.0000   1.0000   1.0000   1.0000   1.0000
     1.0000   1.0000   1.0000   1.0000   0.9368   0.0000   0.0000   0.0000
     0.0000

          k = 0.0833 0.4167 0.4167 (  1361 PWs)   bands (ev):

  -120.3919 -74.5749 -74.5749 -74.5738 -10.5270  -1.3767  -1.3157  -1.2592
    -1.2547  -1.1310   2.2928   2.7007   4.6596   6.0310  10.9103  11.2849
    16.7173

     occupation numbers 
     1.0000   1.0000   1.0000   1.0000   1.0000   1.0000   1.0000   1.0000
     1.0000   1.0000   1.0000   1.0000   0.9045   0.0000   0.0000   0.0000
     0.0000

          k = 0.0833 0.4167-0.5000 (  1360 PWs)   bands (ev):

  -120.3919 -74.5750 -74.5749 -74.5737 -10.5127  -1.3717  -1.3157  -1.2621
    -1.2584  -1.1142   2.3817   2.6854   4.6700   5.8261  10.9380  11.3036
    16.9553

     occupation numbers 
     1.0000   1.0000   1.0000   1.0000   1.0000   1.0000   1.0000   1.0000
     1.0000   1.0000   1.0000   1.0000   0.8747   0.0000   0.0000   0.0000
     0.0000

          k = 0.0833-0.5000-0.5000 (  1364 PWs)   bands (ev):

  -120.3919 -74.5750 -74.5750 -74.5737 -10.4990  -1.3672  -1.3123  -1.2645
    -1.2645  -1.0961   2.5826   2.5826   4.6783   5.5772  11.1655  11.1655
    16.3697

     occupation numbers 
     1.0000   1.0000   1.0000   1.0000   1.0000   1.0000   1.0000   1.0000
     1.0000   1.0000   1.0000   1.0000   0.8490   0.0000   0.0000   0.0000
     0.0000

          k = 0.1667 0.1667 0.1667 (  1346 PWs)   bands (ev):

  -120.3919 -74.5741 -74.5741 -74.5741 -10.8104  -1.4082  -1.4082  -1.2255
    -1.2255  -1.2176   1.6987   3.9796   3.9796   6.0775  13.1835  13.1835
    13.9107

     occupation numbers 
     1.0000   1.0000   1.0000   1.0000   1.0000   1.0000   1.0000   1.0000
     1.0000   1.0000   1.0000   1.0000   1.0000   0.0000   0.0000   0.0000
     0.0000

          k = 0.1667 0.1667 0.2500 (  1355 PWs)   bands (ev):

  -120.3919 -74.5744 -74.5741 -74.5741 -10.7466  -1.4012  -1.3617  -1.2616
    -1.2349  -1.2172   1.6473   3.7657   4.1201   6.4020  11.9358  13.1465
    14.1395

     occupation numbers 
     1.0000   1.0000   1.0000   1.0000   1.0000   1.0000   1.0000   1.0000
     1.0000   1.0000   1.0000   1.0000   1.0002   0.0000   0.0000   0.0000
     0.0000

          k = 0.1667 0.1667 0.3333 (  1365 PWs)   bands (ev):

  -120.3919 -74.5748 -74.5742 -74.5741 -10.6812  -1.3932  -1.3267  -1.2979
    -1.2447  -1.2135   1.5495   3.7127   4.2651   6.7126  10.6927  13.0939
    14.6296

     occupation numbers 
     1.0000   1.0000   1.0000   1.0000   1.0000   1.0000   1.0000   1.0000
     1.0000   1.0000   1.0000   1.0000   1.0053   0.0000   0.0000   0.0000
     0.0000

          k = 0.1667 0.1667 0.4167 (  1352 PWs)   bands (ev):

  -120.3919 -74.5749 -74.5741 -74.5740 -10.6322  -1.3856  -1.3255  -1.3080
    -1.2537  -1.2086   1.4543   3.7578   4.3745   6.9984   9.7643  13.0439
    15.0642

     occupation numbers 
     1.0000   1.0000   1.0000   1.0000   1.0000   1.0000   1.0000   1.0000
     1.0000   1.0000   1.0000   1.0000   1.0296   0.0000   0.0000   0.0000
     0.0000

          k = 0.1667 0.1667-0.5000 (  1362 PWs)   bands (ev):

  -120.3919 -74.5751 -74.5741 -74.5740 -10.6140  -1.3816  -1.3367  -1.3012
    -1.2595  -1.2060   1.4161   3.7903   4.4153   7.1416   9.3901  13.0229
    15.2455

     occupation numbers 
     1.0000   1.0000   1.0000   1.0000   1.0000   1.0000   1.0000   1.0000
     1.0000   1.0000   1.0000   1.0000   1.0467   0.0000   0.0000   0.0000
     0.0000

          k = 0.1667 0.2500 0.2500 (  1359 PWs)   bands (ev):

  -120.3919 -74.5744 -74.5744 -74.5741 -10.6875  -1.3787  -1.3259  -1.2810
    -1.2460  -1.2276   1.7345   3.5803   4.1176   6.6129  12.0075  12.1616
    14.0866

     occupation numbers 
     1.0000   1.0000   1.0000   1.0000   1.0000   1.0000   1.0000   1.0000
     1.0000   1.0000   1.0000   1.0000   1.0002   0.0000   0.0000   0.0000
     0.0000

          k = 0.1667 0.2500 0.3333 (  1354 PWs)   bands (ev):

  -120.3919 -74.5747 -74.5744 -74.5740 -10.6271  -1.3696  -1.3100  -1.2942
    -1.2434  -1.2308   1.7767   3.4407   4.2342   6.7680  10.9477  12.1703
    14.4794

     occupation numbers 
     1.0000   1.0000   1.0000   1.0000   1.0000   1.0000   1.0000   1.0000
     1.0000   1.0000   1.0000   1.0000   1.0029   0.0000   0.0000   0.0000
     0.0000

          k = 0.1667 0.2500 0.4167 (  1358 PWs)   bands (ev):

  -120.3919 -74.5749 -74.5744 -74.5740 -10.5819  -1.3623  -1.3355  -1.2814
    -1.2511  -1.2146   1.7632   3.4389   4.3346   6.8627  10.1713  12.1675
    14.9252

     occupation numbers 
     1.0000   1.0000   1.0000   1.0000   1.0000   1.0000   1.0000   1.0000
     1.0000   1.0000   1.0000   1.0000   1.0172   0.0000   0.0000   0.0000
     0.0000

          k = 0.1667 0.2500-0.5000 (  1358 PWs)   bands (ev):

  -120.3919 -74.5750 -74.5744 -74.5740 -10.5652  -1.3538  -1.3507  -1.2729
    -1.2616  -1.2059   1.7479   3.4630   4.3731   6.8948   9.8903  12.1577
    15.1331

     occupation numbers 
     1.0000   1.0000   1.0000   1.0000   1.0000   1.0000   1.0000   1.0000
     1.0000   1.0000   1.0000   1.0000   1.0291   0.0000   0.0000   0.0000
     0.0000

          k = 0.1667 0.3333 0.3333 (  1351 PWs)   bands (ev):

  -120.3919 -74.5747 -74.5746 -74.5740 -10.5719  -1.3632  -1.3173  -1.2910
    -1.2467  -1.2071   2.0127   3.1820   4.3077   6.7109  10.9784  11.4468
    14.7038

     occupation numbers 
     1.0000   1.0000   1.0000   1.0000   1.0000   1.0000   1.0000   1.0000
     1.0000   1.0000   1.0000   1.0000   1.0113   0.0000   0.0000   0.0000
     0.0000

          k = 0.1667 0.3333 0.4167 (  1362 PWs)   bands (ev):

  -120.3919 -74.5749 -74.5747 -74.5740 -10.5307  -1.3612  -1.3271  -1.2912
    -1.2626  -1.1707   2.1472   3.0989   4.3801   6.5755  10.5526  11.4124
    15.0389

     occupation numbers 
     1.0000   1.0000   1.0000   1.0000   1.0000   1.0000   1.0000   1.0000
     1.0000   1.0000   1.0000   1.0000   1.0317   0.0000   0.0000   0.0000
     0.0000

          k = 0.1667 0.3333-0.5000 (  1360 PWs)   bands (ev):

  -120.3919 -74.5750 -74.5747 -74.5740 -10.5155  -1.3600  -1.3326  -1.2836
    -1.2755  -1.1572   2.1724   3.1131   4.4088   6.4982  10.3751  11.4331
    15.2176

     occupation numbers 
     1.0000   1.0000   1.0000   1.0000   1.0000   1.0000   1.0000   1.0000
     1.0000   1.0000   1.0000   1.0000   1.0438   0.0000   0.0000   0.0000
     0.0000

          k = 0.1667 0.4167 0.4167 (  1366 PWs)   bands (ev):

  -120.3919 -74.5750 -74.5749 -74.5740 -10.4925  -1.3579  -1.3185  -1.3063
    -1.2818  -1.1279   2.4863   2.8886   4.4298   6.2265  10.7711  11.0217
    15.2310

     occupation numbers 
     1.0000   1.0000   1.0000   1.0000   1.0000   1.0000   1.0000   1.0000
     1.0000   1.0000   1.0000   1.0000   1.0535   0.0000   0.0000   0.0000
     0.0000

          k = 0.1667 0.4167-0.5000 (  1368 PWs)   bands (ev):

  -120.3919 -74.5750 -74.5749 -74.5741 -10.4784  -1.3534  -1.3213  -1.3014
    -1.2975  -1.1120   2.5880   2.8673   4.4500   6.0559  10.7406  11.0119
    15.3372

     occupation numbers 
     1.0000   1.0000   1.0000   1.0000   1.0000   1.0000   1.0000   1.0000
     1.0000   1.0000   1.0000   1.0000   1.0630   0.0000   0.0000   0.0000
     0.0000

          k = 0.1667-0.5000-0.5000 (  1344 PWs)   bands (ev):

  -120.3919 -74.5749 -74.5749 -74.5739 -10.4647  -1.3436  -1.3131  -1.3131
    -1.3126  -1.0950   2.7803   2.7803   4.4667   5.8429  10.8803  10.8803
    15.3913

     occupation numbers 
     1.0000   1.0000   1.0000   1.0000   1.0000   1.0000   1.0000   1.0000
     1.0000   1.0000   1.0000   1.0000   1.0703   0.0000   0.0000   0.0000
     0.0000

          k = 0.2500 0.2500 0.2500 (  1382 PWs)   bands (ev):

  -120.3919 -74.5745 -74.5745 -74.5745 -10.6319  -1.3324  -1.3324  -1.2762
    -1.2762  -1.2332   1.8773   3.7651   3.7651   6.7284  11.9871  11.9871
    13.2680

     occupation numbers 
     1.0000   1.0000   1.0000   1.0000   1.0000   1.0000   1.0000   1.0000
     1.0000   1.0000   1.0000   1.0000   1.0000   0.0000   0.0000   0.0000
     0.0000

          k = 0.2500 0.2500 0.3333 (  1359 PWs)   bands (ev):

  -120.3919 -74.5747 -74.5744 -74.5743 -10.5750  -1.3531  -1.3195  -1.2903
    -1.2477  -1.2362   2.0073   3.5266   3.9591   6.8037  11.1192  11.7871
    13.6253

     occupation numbers 
     1.0000   1.0000   1.0000   1.0000   1.0000   1.0000   1.0000   1.0000
     1.0000   1.0000   1.0000   1.0000   1.0000   0.0000   0.0000   0.0000
     0.0000

          k = 0.2500 0.2500 0.4167 (  1359 PWs)   bands (ev):

  -120.3919 -74.5749 -74.5744 -74.5743 -10.5325  -1.3755  -1.3137  -1.2928
    -1.2662  -1.2009   2.0723   3.4446   4.1081   6.8405  10.3913  11.6231
    14.1508

     occupation numbers 
     1.0000   1.0000   1.0000   1.0000   1.0000   1.0000   1.0000   1.0000
     1.0000   1.0000   1.0000   1.0000   1.0001   0.0000   0.0000   0.0000
     0.0000

          k = 0.2500 0.2500-0.5000 (  1356 PWs)   bands (ev):

  -120.3919 -74.5750 -74.5744 -74.5743 -10.5168  -1.3843  -1.3074  -1.2929
    -1.2785  -1.1878   2.0849   3.4401   4.1643   6.8501  10.1246  11.5591
    14.3896

     occupation numbers 
     1.0000   1.0000   1.0000   1.0000   1.0000   1.0000   1.0000   1.0000
     1.0000   1.0000   1.0000   1.0000   1.0006   0.0000   0.0000   0.0000
     0.0000

          k = 0.2500 0.3333 0.3333 (  1370 PWs)   bands (ev):

  -120.3919 -74.5747 -74.5747 -74.5744 -10.5218  -1.3726  -1.3419  -1.2700
    -1.2632  -1.2029   2.2632   3.4148   3.9648   6.7875  11.0657  11.1461
    13.5375

     occupation numbers 
     1.0000   1.0000   1.0000   1.0000   1.0000   1.0000   1.0000   1.0000
     1.0000   1.0000   1.0000   1.0000   1.0000   0.0000   0.0000   0.0000
     0.0000

          k = 0.2500 0.3333 0.4167 (  1368 PWs)   bands (ev):

  -120.3919 -74.5749 -74.5747 -74.5744 -10.4822  -1.3939  -1.3462  -1.2943
    -1.2583  -1.1639   2.4465   3.3054   4.0774   6.7264  10.5208  11.0119
    13.7882

     occupation numbers 
     1.0000   1.0000   1.0000   1.0000   1.0000   1.0000   1.0000   1.0000
     1.0000   1.0000   1.0000   1.0000   1.0001   0.0000   0.0000   0.0000
     0.0000

          k = 0.2500 0.3333-0.5000 (  1366 PWs)   bands (ev):

  -120.3919 -74.5750 -74.5747 -74.5744 -10.4675  -1.4025  -1.3417  -1.3098
    -1.2567  -1.1490   2.5012   3.2891   4.1269   6.6878  10.3134  10.9570
    13.9310

     occupation numbers 
     1.0000   1.0000   1.0000   1.0000   1.0000   1.0000   1.0000   1.0000
     1.0000   1.0000   1.0000   1.0000   1.0002   0.0000   0.0000   0.0000
     0.0000

          k = 0.2500 0.4167 0.4167 (  1364 PWs)   bands (ev):

  -120.3919 -74.5749 -74.5749 -74.5743 -10.4446  -1.4011  -1.3658  -1.3272
    -1.2455  -1.1249   2.7755   3.1591   4.1401   6.5381  10.5116  10.6351
    13.6806

     occupation numbers 
     1.0000   1.0000   1.0000   1.0000   1.0000   1.0000   1.0000   1.0000
     1.0000   1.0000   1.0000   1.0000   1.0003   0.0000   0.0000   0.0000
     0.0000

          k = 0.2500 0.4167-0.5000 (  1362 PWs)   bands (ev):

  -120.3919 -74.5750 -74.5749 -74.5743 -10.4308  -1.4025  -1.3664  -1.3474
    -1.2422  -1.1095   2.8917   3.1283   4.1728   6.4340  10.4269  10.5799
    13.6677

     occupation numbers 
     1.0000   1.0000   1.0000   1.0000   1.0000   1.0000   1.0000   1.0000
     1.0000   1.0000   1.0000   1.0000   1.0007   0.0000   0.0000   0.0000
     0.0000

          k = 0.2500-0.5000-0.5000 (  1360 PWs)   bands (ev):

  -120.3919 -74.5750 -74.5750 -74.5743 -10.4172  -1.3887  -1.3753  -1.3753
    -1.2383  -1.0938   3.0653   3.0653   4.1981   6.2957  10.4636  10.4636
    13.5774

     occupation numbers 
     1.0000   1.0000   1.0000   1.0000   1.0000   1.0000   1.0000   1.0000
     1.0000   1.0000   1.0000   1.0000   1.0013   0.0000   0.0000   0.0000
     0.0000

          k = 0.3333 0.3333 0.3333 (  1349 PWs)   bands (ev):

  -120.3919 -74.5746 -74.5746 -74.5745 -10.4707  -1.3894  -1.3894  -1.3002
    -1.1995  -1.1995   2.5553   3.6633   3.6633   6.8443  10.8143  10.8143
    12.9573

     occupation numbers 
     1.0000   1.0000   1.0000   1.0000   1.0000   1.0000   1.0000   1.0000
     1.0000   1.0000   1.0000   1.0000   1.0000   0.0000   0.0000   0.0000
     0.0000

          k = 0.3333 0.3333 0.4167 (  1362 PWs)   bands (ev):

  -120.3919 -74.5749 -74.5746 -74.5746 -10.4327  -1.4227  -1.3934  -1.3357
    -1.1973  -1.1517   2.7978   3.4738   3.8583   6.8627  10.3821  10.5497
    12.8692

     occupation numbers 
     1.0000   1.0000   1.0000   1.0000   1.0000   1.0000   1.0000   1.0000
     1.0000   1.0000   1.0000   1.0000   1.0000   0.0000   0.0000   0.0000
     0.0000

          k = 0.3333 0.3333-0.5000 (  1368 PWs)   bands (ev):

  -120.3919 -74.5750 -74.5747 -74.5746 -10.4186  -1.4346  -1.3886  -1.3556
    -1.1965  -1.1344   2.8887   3.4176   3.9330   6.8610  10.1910  10.4478
    12.8851

     occupation numbers 
     1.0000   1.0000   1.0000   1.0000   1.0000   1.0000   1.0000   1.0000
     1.0000   1.0000   1.0000   1.0000   1.0000   0.0000   0.0000   0.0000
     0.0000

          k = 0.3333 0.4167 0.4167 (  1375 PWs)   bands (ev):

  -120.3919 -74.5749 -74.5749 -74.5747 -10.3958  -1.4393  -1.4213  -1.3778
    -1.1735  -1.1226   3.1038   3.4514   3.8728   6.9300  10.1742  10.2145
    12.3366

     occupation numbers 
     1.0000   1.0000   1.0000   1.0000   1.0000   1.0000   1.0000   1.0000
     1.0000   1.0000   1.0000   1.0000   1.0000   0.0000   0.0000   0.0000
     0.0000

          k = 0.3333 0.4167-0.5000 (  1370 PWs)   bands (ev):

  -120.3919 -74.5750 -74.5749 -74.5747 -10.3822  -1.4469  -1.4216  -1.4015
    -1.1698  -1.1070   3.2308   3.4062   3.9213   6.9393  10.0653  10.1082
    12.1638

     occupation numbers 
     1.0000   1.0000   1.0000   1.0000   1.0000   1.0000   1.0000   1.0000
     1.0000   1.0000   1.0000   1.0000   1.0000   0.0000   0.0000   0.0000
     0.0000

          k = 0.3333-0.5000-0.5000 (  1368 PWs)   bands (ev):

  -120.3919 -74.5749 -74.5749 -74.5748 -10.3687  -1.4367  -1.4333  -1.4333
    -1.1646  -1.0925   3.3745   3.3745   3.9500   6.9435  10.0117  10.0117
    11.8910

     occupation numbers 
     1.0000   1.0000   1.0000   1.0000   1.0000   1.0000   1.0000   1.0000
     1.0000   1.0000   1.0000   1.0000   1.0000   0.0000   0.0000   0.0000
     0.0000

          k = 0.4167 0.4167 0.4167 (  1370 PWs)   bands (ev):

  -120.3919 -74.5749 -74.5749 -74.5749 -10.3594  -1.4596  -1.4596  -1.4235
    -1.1210  -1.1210   3.3832   3.6845   3.6845   7.3100   9.8813   9.8813
    11.3552

     occupation numbers 
     1.0000   1.0000   1.0000   1.0000   1.0000   1.0000   1.0000   1.0000
     1.0000   1.0000   1.0000   1.0000   1.0000   0.0000   0.0000   0.0000
     0.0000

          k = 0.4167 0.4167-0.5000 (  1360 PWs)   bands (ev):

  -120.3918 -74.5749 -74.5749 -74.5748 -10.3460  -1.4732  -1.4599  -1.4474
    -1.1204  -1.1019   3.5110   3.6019   3.7750   7.4848   9.7531   9.7695
    10.9677

     occupation numbers 
     1.0000   1.0000   1.0000   1.0000   1.0000   1.0000   1.0000   1.0000
     1.0000   1.0000   1.0000   1.0000   1.0000   0.0000   0.0000   0.0000
     0.0000

          k = 0.4167-0.5000-0.5000 (  1364 PWs)   bands (ev):

  -120.3918 -74.5750 -74.5750 -74.5748 -10.3326  -1.4738  -1.4735  -1.4735
    -1.1109  -1.0917   3.6226   3.6226   3.7796   7.7721   9.6541   9.6541
    10.4180

     occupation numbers 
     1.0000   1.0000   1.0000   1.0000   1.0000   1.0000   1.0000   1.0000
     1.0000   1.0000   1.0000   1.0000   1.0000   0.0000   0.0000   0.0000
     0.0000

          k =-0.5000-0.5000-0.5000 (  1376 PWs)   bands (ev):

  -120.3919 -74.5750 -74.5750 -74.5750 -10.3193  -1.4878  -1.4878  -1.4878
    -1.0913  -1.0913   3.7194   3.7194   3.7194   8.4558   9.5163   9.5163
     9.5163

     occupation numbers 
     1.0000   1.0000   1.0000   1.0000   1.0000   1.0000   1.0000   1.0000
     1.0000   1.0000   1.0000   1.0000   1.0000   0.0000   0.0000   0.0000
     0.0000

     the Fermi energy is     4.8030 ev

!    total energy              =    -503.04361578 Ry
     estimated scf accuracy    <          8.6E-09 Ry
     smearing contrib. (-TS)   =       0.00157645 Ry
     internal energy E=F+TS    =    -503.04519223 Ry

     The total energy is F=E-TS. E is the sum of the following terms:
     one-electron contribution =    -432.55127903 Ry
     hartree contribution      =     222.48737998 Ry
     xc contribution           =     -49.25190005 Ry
     ewald contribution        =    -234.18561959 Ry
     one-center paw contrib.   =      -9.54377354 Ry
      -> PAW hartree energy AE =      23.49959466 Ry
      -> PAW hartree energy PS =     -23.39871145 Ry
      -> PAW xc energy AE      =     -16.26067309 Ry
      -> PAW xc energy PS      =       6.61601634 Ry
      -> total E_H with PAW    =     222.58826319 Ry
      -> total E_XC with PAW   =     -58.89655680 Ry

     convergence has been achieved in  11 iterations

     Forces acting on atoms (cartesian axes, Ry/au):

     atom    1 type  2   force =     0.00000000    0.00000000    0.00000000
     atom    2 type  1   force =     0.00000000    0.00000000    0.00000000
     The non-local contrib.  to forces
     atom    1 type  2   force =     0.00000000    0.00000000    0.00000000
     atom    2 type  1   force =     0.00000000    0.00000000    0.00000000
     The ionic contribution  to forces
     atom    1 type  2   force =    -0.00000000   -0.00000000   -0.00000000
     atom    2 type  1   force =     0.00000000    0.00000000    0.00000000
     The local contribution  to forces
     atom    1 type  2   force =     0.00000000    0.00000000    0.00000000
     atom    2 type  1   force =     0.00000000    0.00000000    0.00000000
     The core correction contribution to forces
     atom    1 type  2   force =     0.00000000    0.00000000    0.00000000
     atom    2 type  1   force =     0.00000000    0.00000000    0.00000000
     The Hubbard contrib.    to forces
     atom    1 type  2   force =     0.00000000    0.00000000    0.00000000
     atom    2 type  1   force =     0.00000000    0.00000000    0.00000000
     The SCF correction term to forces
     atom    1 type  2   force =     0.00000000   -0.00000000   -0.00000000
     atom    2 type  1   force =    -0.00000000    0.00000000    0.00000000

     Total force =     0.000000     Total SCF correction =     0.000000


     Computing stress (Cartesian axis) and pressure

          total   stress  (Ry/bohr**3)                   (kbar)     P=     -249.44
  -0.00169563   0.00000000   0.00000000         -249.44        0.00        0.00
   0.00000000  -0.00169563   0.00000000            0.00     -249.44        0.00
   0.00000000   0.00000000  -0.00169563            0.00        0.00     -249.44

     kinetic stress (kbar)  24190.58      0.00      0.00
                                0.00  24190.58      0.00
                                0.00      0.00  24190.58

     local   stress (kbar) -11154.78      0.00     -0.00
                                0.00 -11154.78     -0.00
                               -0.00     -0.00 -11154.78

     nonloc. stress (kbar)   -592.02      0.00      0.00
                                0.00   -592.02      0.00
                                0.00      0.00   -592.02

     hartree stress (kbar)  47964.06      0.00      0.00
                                0.00  47964.06      0.00
                                0.00      0.00  47964.06

     exc-cor stress (kbar)  -9897.44     -0.00     -0.00
                               -0.00  -9897.44     -0.00
                               -0.00     -0.00  -9897.44

     corecor stress (kbar)   -273.85     -0.00      0.00
                               -0.00   -273.85     -0.00
                                0.00     -0.00   -273.85

     ewald   stress (kbar) -50485.98     -0.00      0.00
                               -0.00 -50485.98     -0.00
                                0.00     -0.00 -50485.98

     hubbard stress (kbar)      0.00      0.00      0.00
                                0.00      0.00      0.00
                                0.00      0.00      0.00

     DFT-D   stress (kbar)      0.00      0.00      0.00
                                0.00      0.00      0.00
                                0.00      0.00      0.00

     XDM     stress (kbar)      0.00      0.00      0.00
                                0.00      0.00      0.00
                                0.00      0.00      0.00

     dft-nl  stress (kbar)      0.00      0.00      0.00
                                0.00      0.00      0.00
                                0.00      0.00      0.00

     TS-vdW  stress (kbar)      0.00      0.00      0.00
                                0.00      0.00      0.00
                                0.00      0.00      0.00

     MDB     stress (kbar)      0.00      0.00      0.00
                                0.00      0.00      0.00
                                0.00      0.00      0.00

     3D-RISM stress (kbar)      0.00      0.00      0.00
                                0.00      0.00      0.00
                                0.00      0.00      0.00


     Writing all to output data dir ./temp_cubic/aiida.save/ :
     XML data file, charge density, pseudopotentials, collected wavefunctions

     init_run     :    339.22s CPU     14.48s WALL (       1 calls)
     electrons    :   7249.55s CPU    307.20s WALL (       1 calls)
     forces       :    145.46s CPU      6.35s WALL (       1 calls)
     stress       :     23.87s CPU      1.40s WALL (       1 calls)

     Called by init_run:
     wfcinit      :    332.61s CPU     13.94s WALL (       1 calls)
     wfcinit:atom :      5.65s CPU      0.25s WALL (      84 calls)
     wfcinit:wfcr :    321.31s CPU     13.45s WALL (      84 calls)
     potinit      :      2.70s CPU      0.13s WALL (       1 calls)
     hinit0       :      1.78s CPU      0.26s WALL (       1 calls)

     Called by electrons:
     c_bands      :   5874.39s CPU    248.22s WALL (      11 calls)
     sum_band     :   1348.16s CPU     57.39s WALL (      11 calls)
     v_of_rho     :      5.50s CPU      0.25s WALL (      12 calls)
     v_h          :      0.93s CPU      0.05s WALL (      12 calls)
     v_xc         :      5.28s CPU      0.23s WALL (      14 calls)
     newd         :     10.32s CPU      0.88s WALL (      12 calls)
     PAW_pot      :     11.87s CPU      0.51s WALL (      12 calls)
     mix_rho      :      1.07s CPU      0.05s WALL (      11 calls)

     Called by c_bands:
     init_us_2    :     74.59s CPU      3.37s WALL (    2100 calls)
     cegterg      :   5735.69s CPU    242.24s WALL (     924 calls)

     Called by sum_band:
     sum_band:wei :      0.09s CPU      0.01s WALL (      11 calls)
     sum_band:loo :   1342.78s CPU     56.40s WALL (      11 calls)
     sum_band:buf :      0.74s CPU      0.04s WALL (     924 calls)
     sum_band:ini :     35.79s CPU      1.56s WALL (     924 calls)
     sum_band:cal :     18.98s CPU      0.91s WALL (     924 calls)
     sum_band:bec :     65.79s CPU      2.68s WALL (     924 calls)
     addusdens    :      4.92s CPU      0.90s WALL (      11 calls)
                                        0.00s GPU  (      11 calls)
     addusd:skk   :      0.00s CPU      0.00s WALL (      22 calls)
                                        0.00s GPU  (      22 calls)

     Called by *egterg:
     cdiaghg      :     17.33s CPU      0.78s WALL (    2618 calls)
     cegterg:over :     75.57s CPU      2.92s WALL (    1694 calls)
     cegterg:upda :     83.59s CPU      3.77s WALL (    1694 calls)
     cegterg:last :     99.51s CPU      3.73s WALL (    1639 calls)
     h_psi        :   5448.10s CPU    230.14s WALL (    2702 calls)
     s_psi        :     56.11s CPU      2.41s WALL (    2702 calls)
     g_psi        :     71.54s CPU      3.22s WALL (    1694 calls)

     Called by h_psi:
     h_psi:calbec :     55.53s CPU      2.23s WALL (    2702 calls)
     vloc_psi     :   5212.29s CPU    219.98s WALL (    2702 calls)
     add_vuspsi   :     54.28s CPU      2.39s WALL (    2702 calls)

     General routines
     calbec       :     82.90s CPU      3.46s WALL (    4046 calls)
     fft          :      3.90s CPU      0.15s WALL (     179 calls)
     ffts         :      0.01s CPU      0.01s WALL (      23 calls)
     fftw         :    387.27s CPU     17.24s WALL (   88502 calls)
     interpolate  :      0.26s CPU      0.02s WALL (      12 calls)

     Parallel routines

     PAW routines
     PAW_pot      :     11.87s CPU      0.51s WALL (      12 calls)
     PAW_symme    :      0.00s CPU      0.00s WALL (      23 calls)

     PWSCF        :      2h 9m CPU   5m32.20s WALL


   This run was terminated on:   0: 8:40   8Jun2024            

=------------------------------------------------------------------------------=
   JOB DONE.
=------------------------------------------------------------------------------=
