
     Program PWSCF v.7.3.1 starts on  8Jun2024 at 21: 3:24 

     This program is part of the open-source Quantum ESPRESSO suite
     for quantum simulation of materials; please cite
         "P. Giannozzi et al., J. Phys.:Condens. Matter 21 395502 (2009);
         "P. Giannozzi et al., J. Phys.:Condens. Matter 29 465901 (2017);
         "P. Giannozzi et al., J. Chem. Phys. 152 154105 (2020);
          URL http://www.quantum-espresso.org", 
     in publications or presentations arising from this work. More details at
     http://www.quantum-espresso.org/quote

     Parallel version (MPI & OpenMP), running on      24 processor cores
     Number of MPI processes:                 1
     Threads/MPI process:                    24

     MPI processes distributed on     1 nodes
     4753 MiB available memory on the printing compute node when the environment starts

     Waiting for input...
     Reading input from standard input

     Current dimensions of program PWSCF are:
     Max number of different atomic species (ntypx) = 10
     Max number of k-points (npk) =  40000
     Max angular momentum in pseudopotentials (lmaxx) =  4
     file O.pbe-n-kjpaw_psl.0.1.UPF: wavefunction(s)  2P renormalized
     Message from routine setup:
     using ibrav=0 with symmetry is DISCOURAGED, use correct ibrav instead

     Subspace diagonalization in iterative solution of the eigenvalue problem:
     a serial algorithm will be used


     G-vector sticks info
     --------------------
     sticks:   dense  smooth     PW     G-vecs:    dense   smooth      PW
     Sum        3297    1649    481               142081    50301    7809

     Using Slab Decomposition



     bravais-lattice index     =            0
     lattice parameter (alat)  =      10.1737  a.u.
     unit-cell volume          =    1053.0320 (a.u.)^3
     number of atoms/cell      =           15
     number of atomic types    =            2
     number of electrons       =       202.00
     number of Kohn-Sham states=          121
     kinetic-energy cutoff     =      50.0000  Ry
     charge density cutoff     =     400.0000  Ry
     scf convergence threshold =      8.0E-08
     mixing beta               =       0.4000
     number of iterations used =            8  plain     mixing
     energy convergence thresh.=      1.6E-04
     force convergence thresh. =      1.0E-04
     press convergence thresh. =      5.0E-01
     Exchange-correlation= SLA  PW   PBE  PBE
                           (   1   4   3   4   0   0   0)
     nstep                     =           50


     celldm(1)=  10.173737  celldm(2)=   0.000000  celldm(3)=   0.000000
     celldm(4)=   0.000000  celldm(5)=   0.000000  celldm(6)=   0.000000

     crystal axes: (cart. coord. in units of alat)
               a(1) = (   1.000000   0.000000   0.000000 )  
               a(2) = (   0.000000   1.000000   0.000000 )  
               a(3) = (   0.000000   0.000000   1.000000 )  

     reciprocal axes: (cart. coord. in units 2 pi/alat)
               b(1) = (  1.000000  0.000000  0.000000 )  
               b(2) = (  0.000000  1.000000  0.000000 )  
               b(3) = (  0.000000  0.000000  1.000000 )  


     PseudoPot. # 1 for O  read from file:
     ../SSSP_1.3.0_PBE_efficiency/O.pbe-n-kjpaw_psl.0.1.UPF
     MD5 check sum: 0234752ac141de4415c5fc33072bef88
     Pseudo is Projector augmented-wave + core cor, Zval =  6.0
     Generated using "atomic" code by A. Dal Corso  v.5.0.99 svn rev. 10869
     Shape of augmentation charge: BESSEL
     Using radial grid of 1095 points,  4 beta functions with: 
                l(1) =   0
                l(2) =   0
                l(3) =   1
                l(4) =   1
     Q(r) pseudized with 0 coefficients 


     PseudoPot. # 2 for Zn read from file:
     ../SSSP_1.3.0_PBE_efficiency/Zn_pbe_v1.uspp.F.UPF
     MD5 check sum: df62231357ef9e81f77b2b3087fa5675
     Pseudo is Ultrasoft, Zval = 20.0
     Generated by new atomic code, or converted to UPF format
     Using radial grid of  943 points,  6 beta functions with: 
                l(1) =   0
                l(2) =   0
                l(3) =   1
                l(4) =   1
                l(5) =   2
                l(6) =   2
     Q(r) pseudized with  8 coefficients,  rinner =    1.100   1.100   1.100
                                                       1.100   1.100

     atomic species   valence    mass     pseudopotential
     O                 6.00    15.99940     O ( 1.00)
     Zn               20.00    65.38000     Zn( 1.00)

     48 Sym. Ops., with inversion, found (42 have fractional translation)


                                    s                        frac. trans.

      isym =  1     identity                                     

 cryst.   s( 1) = (     1          0          0      )
                  (     0          1          0      )
                  (     0          0          1      )

 cart.    s( 1) = (  1.0000000  0.0000000  0.0000000 )
                  (  0.0000000  1.0000000  0.0000000 )
                  (  0.0000000  0.0000000  1.0000000 )


      isym =  2     180 deg rotation - cart. axis [0,0,1]        

 cryst.   s( 2) = (    -1          0          0      )    f =(  0.5000000 )
                  (     0         -1          0      )       (  0.5000000 )
                  (     0          0          1      )       (  0.0000000 )

 cart.    s( 2) = ( -1.0000000  0.0000000  0.0000000 )    f =(  0.5000000 )
                  (  0.0000000 -1.0000000  0.0000000 )       (  0.5000000 )
                  (  0.0000000  0.0000000  1.0000000 )       (  0.0000000 )


      isym =  3     180 deg rotation - cart. axis [0,1,0]        

 cryst.   s( 3) = (    -1          0          0      )    f =(  0.5000000 )
                  (     0          1          0      )       (  0.0000000 )
                  (     0          0         -1      )       (  0.5000000 )

 cart.    s( 3) = ( -1.0000000  0.0000000  0.0000000 )    f =(  0.5000000 )
                  (  0.0000000  1.0000000  0.0000000 )       (  0.0000000 )
                  (  0.0000000  0.0000000 -1.0000000 )       (  0.5000000 )


      isym =  4     180 deg rotation - cart. axis [1,0,0]        

 cryst.   s( 4) = (     1          0          0      )    f =(  0.0000000 )
                  (     0         -1          0      )       (  0.5000000 )
                  (     0          0         -1      )       (  0.5000000 )

 cart.    s( 4) = (  1.0000000  0.0000000  0.0000000 )    f =(  0.0000000 )
                  (  0.0000000 -1.0000000  0.0000000 )       (  0.5000000 )
                  (  0.0000000  0.0000000 -1.0000000 )       (  0.5000000 )


      isym =  5     180 deg rotation - cart. axis [1,1,0]        

 cryst.   s( 5) = (     0          1          0      )    f =(  0.0000000 )
                  (     1          0          0      )       (  0.0000000 )
                  (     0          0         -1      )       (  0.5000000 )

 cart.    s( 5) = (  0.0000000  1.0000000  0.0000000 )    f =(  0.0000000 )
                  (  1.0000000  0.0000000  0.0000000 )       (  0.0000000 )
                  (  0.0000000  0.0000000 -1.0000000 )       (  0.5000000 )


      isym =  6     180 deg rotation - cart. axis [1,-1,0]       

 cryst.   s( 6) = (     0         -1          0      )    f =(  0.5000000 )
                  (    -1          0          0      )       (  0.5000000 )
                  (     0          0         -1      )       (  0.5000000 )

 cart.    s( 6) = (  0.0000000 -1.0000000  0.0000000 )    f =(  0.5000000 )
                  ( -1.0000000  0.0000000  0.0000000 )       (  0.5000000 )
                  (  0.0000000  0.0000000 -1.0000000 )       (  0.5000000 )


      isym =  7      90 deg rotation - cart. axis [0,0,-1]       

 cryst.   s( 7) = (     0         -1          0      )    f =(  0.0000000 )
                  (     1          0          0      )       (  0.5000000 )
                  (     0          0          1      )       (  0.0000000 )

 cart.    s( 7) = (  0.0000000  1.0000000  0.0000000 )    f =(  0.0000000 )
                  ( -1.0000000  0.0000000  0.0000000 )       (  0.5000000 )
                  (  0.0000000  0.0000000  1.0000000 )       (  0.0000000 )


      isym =  8      90 deg rotation - cart. axis [0,0,1]        

 cryst.   s( 8) = (     0          1          0      )    f =(  0.5000000 )
                  (    -1          0          0      )       (  0.0000000 )
                  (     0          0          1      )       (  0.0000000 )

 cart.    s( 8) = (  0.0000000 -1.0000000  0.0000000 )    f =(  0.5000000 )
                  (  1.0000000  0.0000000  0.0000000 )       (  0.0000000 )
                  (  0.0000000  0.0000000  1.0000000 )       (  0.0000000 )


      isym =  9     180 deg rotation - cart. axis [1,0,1]        

 cryst.   s( 9) = (     0          0          1      )    f =(  0.0000000 )
                  (     0         -1          0      )       (  0.5000000 )
                  (     1          0          0      )       (  0.0000000 )

 cart.    s( 9) = (  0.0000000  0.0000000  1.0000000 )    f =(  0.0000000 )
                  (  0.0000000 -1.0000000  0.0000000 )       (  0.5000000 )
                  (  1.0000000  0.0000000  0.0000000 )       (  0.0000000 )


      isym = 10     180 deg rotation - cart. axis [-1,0,1]       

 cryst.   s(10) = (     0          0         -1      )    f =(  0.5000000 )
                  (     0         -1          0      )       (  0.5000000 )
                  (    -1          0          0      )       (  0.5000000 )

 cart.    s(10) = (  0.0000000  0.0000000 -1.0000000 )    f =(  0.5000000 )
                  (  0.0000000 -1.0000000  0.0000000 )       (  0.5000000 )
                  ( -1.0000000  0.0000000  0.0000000 )       (  0.5000000 )


      isym = 11      90 deg rotation - cart. axis [0,1,0]        

 cryst.   s(11) = (     0          0         -1      )    f =(  0.0000000 )
                  (     0          1          0      )       (  0.0000000 )
                  (     1          0          0      )       (  0.5000000 )

 cart.    s(11) = (  0.0000000  0.0000000  1.0000000 )    f =(  0.0000000 )
                  (  0.0000000  1.0000000  0.0000000 )       (  0.0000000 )
                  ( -1.0000000  0.0000000  0.0000000 )       (  0.5000000 )


      isym = 12      90 deg rotation - cart. axis [0,-1,0]       

 cryst.   s(12) = (     0          0          1      )    f =(  0.5000000 )
                  (     0          1          0      )       (  0.0000000 )
                  (    -1          0          0      )       (  0.0000000 )

 cart.    s(12) = (  0.0000000  0.0000000 -1.0000000 )    f =(  0.5000000 )
                  (  0.0000000  1.0000000  0.0000000 )       (  0.0000000 )
                  (  1.0000000  0.0000000  0.0000000 )       (  0.0000000 )


      isym = 13     180 deg rotation - cart. axis [0,1,1]        

 cryst.   s(13) = (    -1          0          0      )    f =(  0.5000000 )
                  (     0          0          1      )       (  0.0000000 )
                  (     0          1          0      )       (  0.0000000 )

 cart.    s(13) = ( -1.0000000  0.0000000  0.0000000 )    f =(  0.5000000 )
                  (  0.0000000  0.0000000  1.0000000 )       (  0.0000000 )
                  (  0.0000000  1.0000000  0.0000000 )       (  0.0000000 )


      isym = 14     180 deg rotation - cart. axis [0,1,-1]       

 cryst.   s(14) = (    -1          0          0      )    f =(  0.5000000 )
                  (     0          0         -1      )       (  0.5000000 )
                  (     0         -1          0      )       (  0.5000000 )

 cart.    s(14) = ( -1.0000000  0.0000000  0.0000000 )    f =(  0.5000000 )
                  (  0.0000000  0.0000000 -1.0000000 )       (  0.5000000 )
                  (  0.0000000 -1.0000000  0.0000000 )       (  0.5000000 )


      isym = 15      90 deg rotation - cart. axis [-1,0,0]       

 cryst.   s(15) = (     1          0          0      )    f =(  0.0000000 )
                  (     0          0         -1      )       (  0.0000000 )
                  (     0          1          0      )       (  0.5000000 )

 cart.    s(15) = (  1.0000000  0.0000000  0.0000000 )    f =(  0.0000000 )
                  (  0.0000000  0.0000000  1.0000000 )       (  0.0000000 )
                  (  0.0000000 -1.0000000  0.0000000 )       (  0.5000000 )


      isym = 16      90 deg rotation - cart. axis [1,0,0]        

 cryst.   s(16) = (     1          0          0      )    f =(  0.0000000 )
                  (     0          0          1      )       (  0.5000000 )
                  (     0         -1          0      )       (  0.0000000 )

 cart.    s(16) = (  1.0000000  0.0000000  0.0000000 )    f =(  0.0000000 )
                  (  0.0000000  0.0000000 -1.0000000 )       (  0.5000000 )
                  (  0.0000000  1.0000000  0.0000000 )       (  0.0000000 )


      isym = 17     120 deg rotation - cart. axis [-1,-1,-1]     

 cryst.   s(17) = (     0          0          1      )
                  (     1          0          0      )
                  (     0          1          0      )

 cart.    s(17) = (  0.0000000  1.0000000  0.0000000 )
                  (  0.0000000  0.0000000  1.0000000 )
                  (  1.0000000  0.0000000  0.0000000 )


      isym = 18     120 deg rotation - cart. axis [-1,1,1]       

 cryst.   s(18) = (     0          0         -1      )    f =(  0.5000000 )
                  (    -1          0          0      )       (  0.0000000 )
                  (     0          1          0      )       (  0.5000000 )

 cart.    s(18) = (  0.0000000 -1.0000000  0.0000000 )    f =(  0.5000000 )
                  (  0.0000000  0.0000000  1.0000000 )       (  0.0000000 )
                  ( -1.0000000  0.0000000  0.0000000 )       (  0.5000000 )


      isym = 19     120 deg rotation - cart. axis [1,1,-1]       

 cryst.   s(19) = (     0          0         -1      )    f =(  0.0000000 )
                  (     1          0          0      )       (  0.5000000 )
                  (     0         -1          0      )       (  0.5000000 )

 cart.    s(19) = (  0.0000000  1.0000000  0.0000000 )    f =(  0.0000000 )
                  (  0.0000000  0.0000000 -1.0000000 )       (  0.5000000 )
                  ( -1.0000000  0.0000000  0.0000000 )       (  0.5000000 )


      isym = 20     120 deg rotation - cart. axis [1,-1,1]       

 cryst.   s(20) = (     0          0          1      )    f =(  0.5000000 )
                  (    -1          0          0      )       (  0.5000000 )
                  (     0         -1          0      )       (  0.0000000 )

 cart.    s(20) = (  0.0000000 -1.0000000  0.0000000 )    f =(  0.5000000 )
                  (  0.0000000  0.0000000 -1.0000000 )       (  0.5000000 )
                  (  1.0000000  0.0000000  0.0000000 )       (  0.0000000 )


      isym = 21     120 deg rotation - cart. axis [1,1,1]        

 cryst.   s(21) = (     0          1          0      )
                  (     0          0          1      )
                  (     1          0          0      )

 cart.    s(21) = (  0.0000000  0.0000000  1.0000000 )
                  (  1.0000000  0.0000000  0.0000000 )
                  (  0.0000000  1.0000000  0.0000000 )


      isym = 22     120 deg rotation - cart. axis [-1,1,-1]      

 cryst.   s(22) = (     0         -1          0      )    f =(  0.0000000 )
                  (     0          0         -1      )       (  0.5000000 )
                  (     1          0          0      )       (  0.5000000 )

 cart.    s(22) = (  0.0000000  0.0000000  1.0000000 )    f =(  0.0000000 )
                  ( -1.0000000  0.0000000  0.0000000 )       (  0.5000000 )
                  (  0.0000000 -1.0000000  0.0000000 )       (  0.5000000 )


      isym = 23     120 deg rotation - cart. axis [1,-1,-1]      

 cryst.   s(23) = (     0         -1          0      )    f =(  0.5000000 )
                  (     0          0          1      )       (  0.5000000 )
                  (    -1          0          0      )       (  0.0000000 )

 cart.    s(23) = (  0.0000000  0.0000000 -1.0000000 )    f =(  0.5000000 )
                  ( -1.0000000  0.0000000  0.0000000 )       (  0.5000000 )
                  (  0.0000000  1.0000000  0.0000000 )       (  0.0000000 )


      isym = 24     120 deg rotation - cart. axis [-1,-1,1]      

 cryst.   s(24) = (     0          1          0      )    f =(  0.5000000 )
                  (     0          0         -1      )       (  0.0000000 )
                  (    -1          0          0      )       (  0.5000000 )

 cart.    s(24) = (  0.0000000  0.0000000 -1.0000000 )    f =(  0.5000000 )
                  (  1.0000000  0.0000000  0.0000000 )       (  0.0000000 )
                  (  0.0000000 -1.0000000  0.0000000 )       (  0.5000000 )


      isym = 25     inversion                                    

 cryst.   s(25) = (    -1          0          0      )    f =(  0.5000000 )
                  (     0         -1          0      )       (  0.5000000 )
                  (     0          0         -1      )       (  0.5000000 )

 cart.    s(25) = ( -1.0000000  0.0000000  0.0000000 )    f =(  0.5000000 )
                  (  0.0000000 -1.0000000  0.0000000 )       (  0.5000000 )
                  (  0.0000000  0.0000000 -1.0000000 )       (  0.5000000 )


      isym = 26     inv. 180 deg rotation - cart. axis [0,0,1]   

 cryst.   s(26) = (     1          0          0      )    f =(  0.0000000 )
                  (     0          1          0      )       (  0.0000000 )
                  (     0          0         -1      )       (  0.5000000 )

 cart.    s(26) = (  1.0000000  0.0000000  0.0000000 )    f =(  0.0000000 )
                  (  0.0000000  1.0000000  0.0000000 )       (  0.0000000 )
                  (  0.0000000  0.0000000 -1.0000000 )       (  0.5000000 )


      isym = 27     inv. 180 deg rotation - cart. axis [0,1,0]   

 cryst.   s(27) = (     1          0          0      )    f =(  0.0000000 )
                  (     0         -1          0      )       (  0.5000000 )
                  (     0          0          1      )       (  0.0000000 )

 cart.    s(27) = (  1.0000000  0.0000000  0.0000000 )    f =(  0.0000000 )
                  (  0.0000000 -1.0000000  0.0000000 )       (  0.5000000 )
                  (  0.0000000  0.0000000  1.0000000 )       (  0.0000000 )


      isym = 28     inv. 180 deg rotation - cart. axis [1,0,0]   

 cryst.   s(28) = (    -1          0          0      )    f =(  0.5000000 )
                  (     0          1          0      )       (  0.0000000 )
                  (     0          0          1      )       (  0.0000000 )

 cart.    s(28) = ( -1.0000000  0.0000000  0.0000000 )    f =(  0.5000000 )
                  (  0.0000000  1.0000000  0.0000000 )       (  0.0000000 )
                  (  0.0000000  0.0000000  1.0000000 )       (  0.0000000 )


      isym = 29     inv. 180 deg rotation - cart. axis [1,1,0]   

 cryst.   s(29) = (     0         -1          0      )    f =(  0.5000000 )
                  (    -1          0          0      )       (  0.5000000 )
                  (     0          0          1      )       (  0.0000000 )

 cart.    s(29) = (  0.0000000 -1.0000000  0.0000000 )    f =(  0.5000000 )
                  ( -1.0000000  0.0000000  0.0000000 )       (  0.5000000 )
                  (  0.0000000  0.0000000  1.0000000 )       (  0.0000000 )


      isym = 30     inv. 180 deg rotation - cart. axis [1,-1,0]  

 cryst.   s(30) = (     0          1          0      )
                  (     1          0          0      )
                  (     0          0          1      )

 cart.    s(30) = (  0.0000000  1.0000000  0.0000000 )
                  (  1.0000000  0.0000000  0.0000000 )
                  (  0.0000000  0.0000000  1.0000000 )


      isym = 31     inv.  90 deg rotation - cart. axis [0,0,-1]  

 cryst.   s(31) = (     0          1          0      )    f =(  0.5000000 )
                  (    -1          0          0      )       (  0.0000000 )
                  (     0          0         -1      )       (  0.5000000 )

 cart.    s(31) = (  0.0000000 -1.0000000  0.0000000 )    f =(  0.5000000 )
                  (  1.0000000  0.0000000  0.0000000 )       (  0.0000000 )
                  (  0.0000000  0.0000000 -1.0000000 )       (  0.5000000 )


      isym = 32     inv.  90 deg rotation - cart. axis [0,0,1]   

 cryst.   s(32) = (     0         -1          0      )    f =(  0.0000000 )
                  (     1          0          0      )       (  0.5000000 )
                  (     0          0         -1      )       (  0.5000000 )

 cart.    s(32) = (  0.0000000  1.0000000  0.0000000 )    f =(  0.0000000 )
                  ( -1.0000000  0.0000000  0.0000000 )       (  0.5000000 )
                  (  0.0000000  0.0000000 -1.0000000 )       (  0.5000000 )


      isym = 33     inv. 180 deg rotation - cart. axis [1,0,1]   

 cryst.   s(33) = (     0          0         -1      )    f =(  0.5000000 )
                  (     0          1          0      )       (  0.0000000 )
                  (    -1          0          0      )       (  0.5000000 )

 cart.    s(33) = (  0.0000000  0.0000000 -1.0000000 )    f =(  0.5000000 )
                  (  0.0000000  1.0000000  0.0000000 )       (  0.0000000 )
                  ( -1.0000000  0.0000000  0.0000000 )       (  0.5000000 )


      isym = 34     inv. 180 deg rotation - cart. axis [-1,0,1]  

 cryst.   s(34) = (     0          0          1      )
                  (     0          1          0      )
                  (     1          0          0      )

 cart.    s(34) = (  0.0000000  0.0000000  1.0000000 )
                  (  0.0000000  1.0000000  0.0000000 )
                  (  1.0000000  0.0000000  0.0000000 )


      isym = 35     inv.  90 deg rotation - cart. axis [0,1,0]   

 cryst.   s(35) = (     0          0          1      )    f =(  0.5000000 )
                  (     0         -1          0      )       (  0.5000000 )
                  (    -1          0          0      )       (  0.0000000 )

 cart.    s(35) = (  0.0000000  0.0000000 -1.0000000 )    f =(  0.5000000 )
                  (  0.0000000 -1.0000000  0.0000000 )       (  0.5000000 )
                  (  1.0000000  0.0000000  0.0000000 )       (  0.0000000 )


      isym = 36     inv.  90 deg rotation - cart. axis [0,-1,0]  

 cryst.   s(36) = (     0          0         -1      )    f =(  0.0000000 )
                  (     0         -1          0      )       (  0.5000000 )
                  (     1          0          0      )       (  0.5000000 )

 cart.    s(36) = (  0.0000000  0.0000000  1.0000000 )    f =(  0.0000000 )
                  (  0.0000000 -1.0000000  0.0000000 )       (  0.5000000 )
                  ( -1.0000000  0.0000000  0.0000000 )       (  0.5000000 )


      isym = 37     inv. 180 deg rotation - cart. axis [0,1,1]   

 cryst.   s(37) = (     1          0          0      )    f =(  0.0000000 )
                  (     0          0         -1      )       (  0.5000000 )
                  (     0         -1          0      )       (  0.5000000 )

 cart.    s(37) = (  1.0000000  0.0000000  0.0000000 )    f =(  0.0000000 )
                  (  0.0000000  0.0000000 -1.0000000 )       (  0.5000000 )
                  (  0.0000000 -1.0000000  0.0000000 )       (  0.5000000 )


      isym = 38     inv. 180 deg rotation - cart. axis [0,1,-1]  

 cryst.   s(38) = (     1          0          0      )
                  (     0          0          1      )
                  (     0          1          0      )

 cart.    s(38) = (  1.0000000  0.0000000  0.0000000 )
                  (  0.0000000  0.0000000  1.0000000 )
                  (  0.0000000  1.0000000  0.0000000 )


      isym = 39     inv.  90 deg rotation - cart. axis [-1,0,0]  

 cryst.   s(39) = (    -1          0          0      )    f =(  0.5000000 )
                  (     0          0          1      )       (  0.5000000 )
                  (     0         -1          0      )       (  0.0000000 )

 cart.    s(39) = ( -1.0000000  0.0000000  0.0000000 )    f =(  0.5000000 )
                  (  0.0000000  0.0000000 -1.0000000 )       (  0.5000000 )
                  (  0.0000000  1.0000000  0.0000000 )       (  0.0000000 )


      isym = 40     inv.  90 deg rotation - cart. axis [1,0,0]   

 cryst.   s(40) = (    -1          0          0      )    f =(  0.5000000 )
                  (     0          0         -1      )       (  0.0000000 )
                  (     0          1          0      )       (  0.5000000 )

 cart.    s(40) = ( -1.0000000  0.0000000  0.0000000 )    f =(  0.5000000 )
                  (  0.0000000  0.0000000  1.0000000 )       (  0.0000000 )
                  (  0.0000000 -1.0000000  0.0000000 )       (  0.5000000 )


      isym = 41     inv. 120 deg rotation - cart. axis [-1,-1,-1]

 cryst.   s(41) = (     0          0         -1      )    f =(  0.5000000 )
                  (    -1          0          0      )       (  0.5000000 )
                  (     0         -1          0      )       (  0.5000000 )

 cart.    s(41) = (  0.0000000 -1.0000000  0.0000000 )    f =(  0.5000000 )
                  (  0.0000000  0.0000000 -1.0000000 )       (  0.5000000 )
                  ( -1.0000000  0.0000000  0.0000000 )       (  0.5000000 )


      isym = 42     inv. 120 deg rotation - cart. axis [-1,1,1]  

 cryst.   s(42) = (     0          0          1      )    f =(  0.0000000 )
                  (     1          0          0      )       (  0.5000000 )
                  (     0         -1          0      )       (  0.0000000 )

 cart.    s(42) = (  0.0000000  1.0000000  0.0000000 )    f =(  0.0000000 )
                  (  0.0000000  0.0000000 -1.0000000 )       (  0.5000000 )
                  (  1.0000000  0.0000000  0.0000000 )       (  0.0000000 )


      isym = 43     inv. 120 deg rotation - cart. axis [1,1,-1]  

 cryst.   s(43) = (     0          0          1      )    f =(  0.5000000 )
                  (    -1          0          0      )       (  0.0000000 )
                  (     0          1          0      )       (  0.0000000 )

 cart.    s(43) = (  0.0000000 -1.0000000  0.0000000 )    f =(  0.5000000 )
                  (  0.0000000  0.0000000  1.0000000 )       (  0.0000000 )
                  (  1.0000000  0.0000000  0.0000000 )       (  0.0000000 )


      isym = 44     inv. 120 deg rotation - cart. axis [1,-1,1]  

 cryst.   s(44) = (     0          0         -1      )    f =(  0.0000000 )
                  (     1          0          0      )       (  0.0000000 )
                  (     0          1          0      )       (  0.5000000 )

 cart.    s(44) = (  0.0000000  1.0000000  0.0000000 )    f =(  0.0000000 )
                  (  0.0000000  0.0000000  1.0000000 )       (  0.0000000 )
                  ( -1.0000000  0.0000000  0.0000000 )       (  0.5000000 )


      isym = 45     inv. 120 deg rotation - cart. axis [1,1,1]   

 cryst.   s(45) = (     0         -1          0      )    f =(  0.5000000 )
                  (     0          0         -1      )       (  0.5000000 )
                  (    -1          0          0      )       (  0.5000000 )

 cart.    s(45) = (  0.0000000  0.0000000 -1.0000000 )    f =(  0.5000000 )
                  ( -1.0000000  0.0000000  0.0000000 )       (  0.5000000 )
                  (  0.0000000 -1.0000000  0.0000000 )       (  0.5000000 )


      isym = 46     inv. 120 deg rotation - cart. axis [-1,1,-1] 

 cryst.   s(46) = (     0          1          0      )    f =(  0.5000000 )
                  (     0          0          1      )       (  0.0000000 )
                  (    -1          0          0      )       (  0.0000000 )

 cart.    s(46) = (  0.0000000  0.0000000 -1.0000000 )    f =(  0.5000000 )
                  (  1.0000000  0.0000000  0.0000000 )       (  0.0000000 )
                  (  0.0000000  1.0000000  0.0000000 )       (  0.0000000 )


      isym = 47     inv. 120 deg rotation - cart. axis [1,-1,-1] 

 cryst.   s(47) = (     0          1          0      )    f =(  0.0000000 )
                  (     0          0         -1      )       (  0.0000000 )
                  (     1          0          0      )       (  0.5000000 )

 cart.    s(47) = (  0.0000000  0.0000000  1.0000000 )    f =(  0.0000000 )
                  (  1.0000000  0.0000000  0.0000000 )       (  0.0000000 )
                  (  0.0000000 -1.0000000  0.0000000 )       (  0.5000000 )


      isym = 48     inv. 120 deg rotation - cart. axis [-1,-1,1] 

 cryst.   s(48) = (     0         -1          0      )    f =(  0.0000000 )
                  (     0          0          1      )       (  0.5000000 )
                  (     1          0          0      )       (  0.0000000 )

 cart.    s(48) = (  0.0000000  0.0000000  1.0000000 )    f =(  0.0000000 )
                  ( -1.0000000  0.0000000  0.0000000 )       (  0.5000000 )
                  (  0.0000000  1.0000000  0.0000000 )       (  0.0000000 )


   Cartesian axes

     site n.     atom                  positions (alat units)
         1        Zn     tau(   1) = (   0.0000000   0.0000000   0.0000000  )
         2        O      tau(   2) = (   0.2500000   0.2500000   0.2500000  )
         3        Zn     tau(   3) = (   0.0000000   0.0000000   0.5000000  )
         4        O      tau(   4) = (   0.2500000   0.2500000   0.7500000  )
         5        Zn     tau(   5) = (   0.0000000   0.5000000   0.0000000  )
         6        O      tau(   6) = (   0.2500000   0.7500000   0.2500000  )
         7        Zn     tau(   7) = (   0.0000000   0.5000000   0.5000000  )
         8        O      tau(   8) = (   0.2500000   0.7500000   0.7500000  )
         9        Zn     tau(   9) = (   0.5000000   0.0000000   0.0000000  )
        10        O      tau(  10) = (   0.7500000   0.2500000   0.2500000  )
        11        Zn     tau(  11) = (   0.5000000   0.0000000   0.5000000  )
        12        O      tau(  12) = (   0.7500000   0.2500000   0.7500000  )
        13        Zn     tau(  13) = (   0.5000000   0.5000000   0.0000000  )
        14        O      tau(  14) = (   0.7500000   0.7500000   0.2500000  )
        15        Zn     tau(  15) = (   0.5000000   0.5000000   0.5000000  )

   Crystallographic axes

     site n.     atom                  positions (cryst. coord.)
         1        Zn     tau(   1) = (  0.0000000  0.0000000  0.0000000  )
         2        O      tau(   2) = (  0.2500000  0.2500000  0.2500000  )
         3        Zn     tau(   3) = (  0.0000000  0.0000000  0.5000000  )
         4        O      tau(   4) = (  0.2500000  0.2500000  0.7500000  )
         5        Zn     tau(   5) = (  0.0000000  0.5000000  0.0000000  )
         6        O      tau(   6) = (  0.2500000  0.7500000  0.2500000  )
         7        Zn     tau(   7) = (  0.0000000  0.5000000  0.5000000  )
         8        O      tau(   8) = (  0.2500000  0.7500000  0.7500000  )
         9        Zn     tau(   9) = (  0.5000000  0.0000000  0.0000000  )
        10        O      tau(  10) = (  0.7500000  0.2500000  0.2500000  )
        11        Zn     tau(  11) = (  0.5000000  0.0000000  0.5000000  )
        12        O      tau(  12) = (  0.7500000  0.2500000  0.7500000  )
        13        Zn     tau(  13) = (  0.5000000  0.5000000  0.0000000  )
        14        O      tau(  14) = (  0.7500000  0.7500000  0.2500000  )
        15        Zn     tau(  15) = (  0.5000000  0.5000000  0.5000000  )

     number of k points=    20  Marzari-Vanderbilt smearing, width (Ry)=  0.0147
                       cart. coord. in units 2pi/alat
        k(    1) = (   0.0000000   0.0000000   0.0000000), wk =   0.0092593
        k(    2) = (   0.0000000   0.0000000   0.1666667), wk =   0.0555556
        k(    3) = (   0.0000000   0.0000000   0.3333333), wk =   0.0555556
        k(    4) = (   0.0000000   0.0000000  -0.5000000), wk =   0.0277778
        k(    5) = (   0.0000000   0.1666667   0.1666667), wk =   0.1111111
        k(    6) = (   0.0000000   0.1666667   0.3333333), wk =   0.2222222
        k(    7) = (   0.0000000   0.1666667  -0.5000000), wk =   0.1111111
        k(    8) = (   0.0000000   0.3333333   0.3333333), wk =   0.1111111
        k(    9) = (   0.0000000   0.3333333  -0.5000000), wk =   0.1111111
        k(   10) = (   0.0000000  -0.5000000  -0.5000000), wk =   0.0277778
        k(   11) = (   0.1666667   0.1666667   0.1666667), wk =   0.0740741
        k(   12) = (   0.1666667   0.1666667   0.3333333), wk =   0.2222222
        k(   13) = (   0.1666667   0.1666667  -0.5000000), wk =   0.1111111
        k(   14) = (   0.1666667   0.3333333   0.3333333), wk =   0.2222222
        k(   15) = (   0.1666667   0.3333333  -0.5000000), wk =   0.2222222
        k(   16) = (   0.1666667  -0.5000000  -0.5000000), wk =   0.0555556
        k(   17) = (   0.3333333   0.3333333   0.3333333), wk =   0.0740741
        k(   18) = (   0.3333333   0.3333333  -0.5000000), wk =   0.1111111
        k(   19) = (   0.3333333  -0.5000000  -0.5000000), wk =   0.0555556
        k(   20) = (  -0.5000000  -0.5000000  -0.5000000), wk =   0.0092593

                       cryst. coord.
        k(    1) = (   0.0000000   0.0000000   0.0000000), wk =   0.0092593
        k(    2) = (   0.0000000   0.0000000   0.1666667), wk =   0.0555556
        k(    3) = (   0.0000000   0.0000000   0.3333333), wk =   0.0555556
        k(    4) = (   0.0000000   0.0000000  -0.5000000), wk =   0.0277778
        k(    5) = (   0.0000000   0.1666667   0.1666667), wk =   0.1111111
        k(    6) = (   0.0000000   0.1666667   0.3333333), wk =   0.2222222
        k(    7) = (   0.0000000   0.1666667  -0.5000000), wk =   0.1111111
        k(    8) = (   0.0000000   0.3333333   0.3333333), wk =   0.1111111
        k(    9) = (   0.0000000   0.3333333  -0.5000000), wk =   0.1111111
        k(   10) = (   0.0000000  -0.5000000  -0.5000000), wk =   0.0277778
        k(   11) = (   0.1666667   0.1666667   0.1666667), wk =   0.0740741
        k(   12) = (   0.1666667   0.1666667   0.3333333), wk =   0.2222222
        k(   13) = (   0.1666667   0.1666667  -0.5000000), wk =   0.1111111
        k(   14) = (   0.1666667   0.3333333   0.3333333), wk =   0.2222222
        k(   15) = (   0.1666667   0.3333333  -0.5000000), wk =   0.2222222
        k(   16) = (   0.1666667  -0.5000000  -0.5000000), wk =   0.0555556
        k(   17) = (   0.3333333   0.3333333   0.3333333), wk =   0.0740741
        k(   18) = (   0.3333333   0.3333333  -0.5000000), wk =   0.1111111
        k(   19) = (   0.3333333  -0.5000000  -0.5000000), wk =   0.0555556
        k(   20) = (  -0.5000000  -0.5000000  -0.5000000), wk =   0.0092593

     Dense  grid:   142081 G-vectors     FFT dimensions: (  72,  72,  72)

     Smooth grid:    50301 G-vectors     FFT dimensions: (  48,  48,  48)

     Dynamical RAM for                 wfc:      11.61 MB

     Dynamical RAM for     wfc (w. buffer):     243.76 MB

     Dynamical RAM for           str. fact:       4.34 MB

     Dynamical RAM for           local pot:       0.00 MB

     Dynamical RAM for          nlocal pot:      19.19 MB

     Dynamical RAM for                qrad:       6.42 MB

     Dynamical RAM for          rho,v,vnew:      15.05 MB

     Dynamical RAM for               rhoin:       5.02 MB

     Dynamical RAM for            rho*nmix:      34.69 MB

     Dynamical RAM for           G-vectors:       8.51 MB

     Dynamical RAM for          h,s,v(r/c):       2.68 MB

     Dynamical RAM for          <psi|beta>:       0.37 MB

     Dynamical RAM for                 psi:      23.22 MB

     Dynamical RAM for                hpsi:      23.22 MB

     Dynamical RAM for                spsi:      23.22 MB

     Dynamical RAM for      wfcinit/wfcrot:      25.73 MB

     Dynamical RAM for           addusdens:     420.59 MB

     Dynamical RAM for          addusforce:     452.06 MB

     Dynamical RAM for         addusstress:     435.76 MB

     Estimated static dynamical RAM per process >     323.03 MB

     Estimated max dynamical RAM per process >     809.77 MB

     Check: negative core charge=   -0.000003

     Initial potential from superposition of free atoms

     starting charge     201.9989, renormalised to     202.0000
     Starting wfcs are  132 randomized atomic wfcs
     Checking if some PAW data can be deallocated... 

     total cpu time spent up to now is       25.3 secs

     Self-consistent Calculation

     iteration #  1     ecut=    50.00 Ry     beta= 0.40
     Davidson diagonalization with overlap

---- Real-time Memory Report at c_bands before calling an iterative solver
           517 MiB given to the printing process from OS
             0 MiB allocation reported by mallinfo(arena+hblkhd)
          4398 MiB available memory on the node where the printing process lives
------------------
     ethr =  1.00E-02,  avg # of iterations =  2.9

     total cpu time spent up to now is       95.5 secs

     total energy              =   -3982.56570908 Ry
     estimated scf accuracy    <       3.63840795 Ry

     iteration #  2     ecut=    50.00 Ry     beta= 0.40
     Davidson diagonalization with overlap

---- Real-time Memory Report at c_bands before calling an iterative solver
           795 MiB given to the printing process from OS
             0 MiB allocation reported by mallinfo(arena+hblkhd)
          4350 MiB available memory on the node where the printing process lives
------------------
     ethr =  1.80E-03,  avg # of iterations =  2.2

     total cpu time spent up to now is      170.7 secs

     total energy              =   -3983.58753130 Ry
     estimated scf accuracy    <       0.85951742 Ry

     iteration #  3     ecut=    50.00 Ry     beta= 0.40
     Davidson diagonalization with overlap

---- Real-time Memory Report at c_bands before calling an iterative solver
           797 MiB given to the printing process from OS
             0 MiB allocation reported by mallinfo(arena+hblkhd)
          4346 MiB available memory on the node where the printing process lives
------------------
     ethr =  4.26E-04,  avg # of iterations =  2.2

     total cpu time spent up to now is      240.4 secs

     total energy              =   -3983.71927525 Ry
     estimated scf accuracy    <       0.03793765 Ry

     iteration #  4     ecut=    50.00 Ry     beta= 0.40
     Davidson diagonalization with overlap

---- Real-time Memory Report at c_bands before calling an iterative solver
           799 MiB given to the printing process from OS
             0 MiB allocation reported by mallinfo(arena+hblkhd)
          4341 MiB available memory on the node where the printing process lives
------------------
     ethr =  1.88E-05,  avg # of iterations =  5.2

     total cpu time spent up to now is      315.1 secs

     total energy              =   -3983.72019388 Ry
     estimated scf accuracy    <       0.00483326 Ry

     iteration #  5     ecut=    50.00 Ry     beta= 0.40
     Davidson diagonalization with overlap

---- Real-time Memory Report at c_bands before calling an iterative solver
           801 MiB given to the printing process from OS
             0 MiB allocation reported by mallinfo(arena+hblkhd)
          4339 MiB available memory on the node where the printing process lives
------------------
     ethr =  2.39E-06,  avg # of iterations =  2.8

     total cpu time spent up to now is      387.5 secs

     total energy              =   -3983.72079728 Ry
     estimated scf accuracy    <       0.00202057 Ry

     iteration #  6     ecut=    50.00 Ry     beta= 0.40
     Davidson diagonalization with overlap

---- Real-time Memory Report at c_bands before calling an iterative solver
           802 MiB given to the printing process from OS
             0 MiB allocation reported by mallinfo(arena+hblkhd)
          4344 MiB available memory on the node where the printing process lives
------------------
     ethr =  1.00E-06,  avg # of iterations =  2.0

     total cpu time spent up to now is      455.6 secs

     total energy              =   -3983.72109718 Ry
     estimated scf accuracy    <       0.00003459 Ry

     iteration #  7     ecut=    50.00 Ry     beta= 0.40
     Davidson diagonalization with overlap

---- Real-time Memory Report at c_bands before calling an iterative solver
           804 MiB given to the printing process from OS
             0 MiB allocation reported by mallinfo(arena+hblkhd)
          4339 MiB available memory on the node where the printing process lives
------------------
     ethr =  1.71E-08,  avg # of iterations =  2.0

     total cpu time spent up to now is      526.1 secs

     total energy              =   -3983.72110498 Ry
     estimated scf accuracy    <       0.00000660 Ry

     iteration #  8     ecut=    50.00 Ry     beta= 0.40
     Davidson diagonalization with overlap

---- Real-time Memory Report at c_bands before calling an iterative solver
           806 MiB given to the printing process from OS
             0 MiB allocation reported by mallinfo(arena+hblkhd)
          4336 MiB available memory on the node where the printing process lives
------------------
     ethr =  3.27E-09,  avg # of iterations =  2.0

     total cpu time spent up to now is      598.2 secs

     total energy              =   -3983.72110558 Ry
     estimated scf accuracy    <       0.00000101 Ry

     iteration #  9     ecut=    50.00 Ry     beta= 0.40
     Davidson diagonalization with overlap

---- Real-time Memory Report at c_bands before calling an iterative solver
           806 MiB given to the printing process from OS
             0 MiB allocation reported by mallinfo(arena+hblkhd)
          4338 MiB available memory on the node where the printing process lives
------------------
     ethr =  5.01E-10,  avg # of iterations =  2.0

     total cpu time spent up to now is      665.5 secs

     total energy              =   -3983.72110578 Ry
     estimated scf accuracy    <       0.00000011 Ry

     iteration # 10     ecut=    50.00 Ry     beta= 0.40
     Davidson diagonalization with overlap

---- Real-time Memory Report at c_bands before calling an iterative solver
           809 MiB given to the printing process from OS
             0 MiB allocation reported by mallinfo(arena+hblkhd)
          4331 MiB available memory on the node where the printing process lives
------------------
     ethr =  5.22E-11,  avg # of iterations =  2.0

     total cpu time spent up to now is      740.1 secs

     End of self-consistent calculation

          k = 0.0000 0.0000 0.0000 (  6355 PWs)   bands (ev):

  -112.8890-112.8879-112.8879-112.8879-112.8868-112.8868-112.8868-112.8857
   -67.1067 -67.1011 -67.1011 -67.1011 -67.0952 -67.0952 -67.0952 -67.0869
   -67.0697 -67.0697 -67.0680 -67.0680 -67.0680 -67.0601 -67.0601 -67.0601
   -67.0560 -67.0560 -67.0560 -67.0512 -67.0512 -67.0512 -67.0498 -67.0498
    -6.3510  -5.3947  -5.3947  -4.9417  -4.5802  -4.5802  -3.8423   4.1187
     4.1187   4.1187   4.9062   4.9062   4.9062   5.4322   5.4322   5.5608
     5.5608   5.5608   5.7017   5.7017   5.7017   5.8202   5.9221   5.9221
     5.9221   5.9605   5.9605   5.9605   6.2179   6.2179   6.2179   6.2268
     6.2268   6.2268   6.2867   6.2867   6.4895   6.4895   6.4895   6.5052
     6.5289   6.5289   6.7422   6.7422   6.7422   6.7597   6.7597   7.1102
     7.1102   7.1102   7.3631   7.3631   7.3631   7.9270   7.9270   7.9270
     9.5880  10.4431  10.4431  10.4431  11.1326  11.1326  11.1326  11.8719
    11.8719  11.8719  11.9317  11.9317  11.9317  14.3496  14.5797  14.5797
    14.5797  16.9880  16.9880  17.0198  17.0198  17.0198  17.5130  17.5130
    17.5130  20.5687  20.5687  20.5687  21.2042  21.9200  21.9200  21.9200
    23.8304

     occupation numbers 
     1.0000   1.0000   1.0000   1.0000   1.0000   1.0000   1.0000   1.0000
     1.0000   1.0000   1.0000   1.0000   1.0000   1.0000   1.0000   1.0000
     1.0000   1.0000   1.0000   1.0000   1.0000   1.0000   1.0000   1.0000
     1.0000   1.0000   1.0000   1.0000   1.0000   1.0000   1.0000   1.0000
     1.0000   1.0000   1.0000   1.0000   1.0000   1.0000   1.0000   1.0000
     1.0000   1.0000   1.0000   1.0000   1.0000   1.0000   1.0000   1.0000
     1.0000   1.0000   1.0000   1.0000   1.0000   1.0000   1.0000   1.0000
     1.0000   1.0000   1.0000   1.0000   1.0000   1.0000   1.0000   1.0000
     1.0000   1.0000   1.0000   1.0000   1.0000   1.0000   1.0000   1.0000
     1.0000   1.0000   1.0000   1.0000   1.0000   1.0000   1.0000   1.0000
     1.0000   1.0000   1.0000   1.0000   1.0000   1.0000   1.0000   1.0000
     1.0000   1.0000   1.0000   1.0000   1.0000   1.0000   1.0000   1.0000
     1.0000   1.0000   1.0000   1.0000   1.0000   0.0004   0.0000   0.0000
     0.0000   0.0000   0.0000   0.0000   0.0000   0.0000   0.0000   0.0000
     0.0000   0.0000   0.0000   0.0000   0.0000   0.0000   0.0000   0.0000
     0.0000

          k = 0.0000 0.0000 0.1667 (  6307 PWs)   bands (ev):

  -112.8890-112.8880-112.8878-112.8878-112.8868-112.8868-112.8867-112.8857
   -67.1063 -67.1014 -67.1006 -67.1006 -67.0953 -67.0953 -67.0943 -67.0874
   -67.0696 -67.0688 -67.0681 -67.0674 -67.0674 -67.0602 -67.0602 -67.0592
   -67.0571 -67.0559 -67.0559 -67.0517 -67.0517 -67.0510 -67.0507 -67.0499
    -6.2898  -5.4452  -5.3602  -4.9544  -4.6247  -4.5665  -3.8950   4.2251
     4.2251   4.2948   4.9539   4.9539   4.9766   5.4407   5.4490   5.5521
     5.5912   5.5912   5.6415   5.6415   5.7698   5.7875   5.9184   5.9432
     5.9432   5.9483   5.9483   6.0094   6.0530   6.0530   6.1591   6.1975
     6.2019   6.2019   6.2370   6.2464   6.4448   6.4448   6.4887   6.4918
     6.5081   6.5226   6.5379   6.5379   6.6871   6.7434   6.7587   7.3022
     7.3022   7.3806   7.4068   7.4068   7.4619   7.8395   8.0241   8.0241
     9.3794  10.2778  10.2778  10.6892  11.0804  11.1416  11.1416  11.4245
    11.6840  11.8234  11.8234  11.9260  11.9260  14.5903  14.6716  14.8493
    14.8493  15.9972  16.9014  16.9014  17.0126  17.4170  17.8853  17.8853
    18.2871  20.1340  20.5206  20.5206  21.5430  21.8719  21.8719  22.0631
    24.3082

     occupation numbers 
     1.0000   1.0000   1.0000   1.0000   1.0000   1.0000   1.0000   1.0000
     1.0000   1.0000   1.0000   1.0000   1.0000   1.0000   1.0000   1.0000
     1.0000   1.0000   1.0000   1.0000   1.0000   1.0000   1.0000   1.0000
     1.0000   1.0000   1.0000   1.0000   1.0000   1.0000   1.0000   1.0000
     1.0000   1.0000   1.0000   1.0000   1.0000   1.0000   1.0000   1.0000
     1.0000   1.0000   1.0000   1.0000   1.0000   1.0000   1.0000   1.0000
     1.0000   1.0000   1.0000   1.0000   1.0000   1.0000   1.0000   1.0000
     1.0000   1.0000   1.0000   1.0000   1.0000   1.0000   1.0000   1.0000
     1.0000   1.0000   1.0000   1.0000   1.0000   1.0000   1.0000   1.0000
     1.0000   1.0000   1.0000   1.0000   1.0000   1.0000   1.0000   1.0000
     1.0000   1.0000   1.0000   1.0000   1.0000   1.0000   1.0000   1.0000
     1.0000   1.0000   1.0000   1.0000   1.0000   1.0000   1.0000   1.0000
     1.0000   1.0000   1.0000   1.0000   1.0000   0.0000   0.0000   0.0000
     0.0000   0.0000   0.0000   0.0000   0.0000   0.0000   0.0000   0.0000
     0.0000   0.0000   0.0000   0.0000   0.0000   0.0000   0.0000   0.0000
     0.0000

          k = 0.0000 0.0000 0.3333 (  6311 PWs)   bands (ev):

  -112.8888-112.8882-112.8876-112.8876-112.8871-112.8871-112.8865-112.8859
   -67.1051 -67.1023 -67.0993 -67.0993 -67.0962 -67.0962 -67.0926 -67.0887
   -67.0693 -67.0684 -67.0665 -67.0657 -67.0657 -67.0614 -67.0614 -67.0598
   -67.0576 -67.0554 -67.0554 -67.0530 -67.0530 -67.0526 -67.0508 -67.0502
    -6.1195  -5.6080  -5.2754  -4.9777  -4.7293  -4.5055  -4.0205   4.5251
     4.5251   4.7189   5.0862   5.0862   5.1558   5.4139   5.4139   5.4554
     5.4641   5.5284   5.6601   5.6601   5.6889   5.6889   5.7420   5.9139
     5.9581   5.9631   5.9978   5.9978   6.0114   6.0549   6.0549   6.1046
     6.1244   6.1244   6.2157   6.2157   6.2896   6.3004   6.3498   6.3498
     6.4358   6.4515   6.4836   6.4978   6.5192   6.7466   6.7554   7.2762
     7.3699   7.3699   7.5338   7.5338   7.8176   8.2465   8.4374   8.4374
     9.0543   9.7924   9.7924  10.4198  10.4813  11.1425  11.2451  11.2451
    11.6830  11.6830  11.8950  11.9236  11.9236  14.0812  14.9553  15.4062
    15.4062  16.1635  16.3576  16.8259  16.8259  18.3902  18.5101  18.5661
    18.5661  20.2388  20.2388  20.3453  20.6411  22.0020  22.0020  23.5661
    23.9602

     occupation numbers 
     1.0000   1.0000   1.0000   1.0000   1.0000   1.0000   1.0000   1.0000
     1.0000   1.0000   1.0000   1.0000   1.0000   1.0000   1.0000   1.0000
     1.0000   1.0000   1.0000   1.0000   1.0000   1.0000   1.0000   1.0000
     1.0000   1.0000   1.0000   1.0000   1.0000   1.0000   1.0000   1.0000
     1.0000   1.0000   1.0000   1.0000   1.0000   1.0000   1.0000   1.0000
     1.0000   1.0000   1.0000   1.0000   1.0000   1.0000   1.0000   1.0000
     1.0000   1.0000   1.0000   1.0000   1.0000   1.0000   1.0000   1.0000
     1.0000   1.0000   1.0000   1.0000   1.0000   1.0000   1.0000   1.0000
     1.0000   1.0000   1.0000   1.0000   1.0000   1.0000   1.0000   1.0000
     1.0000   1.0000   1.0000   1.0000   1.0000   1.0000   1.0000   1.0000
     1.0000   1.0000   1.0000   1.0000   1.0000   1.0000   1.0000   1.0000
     1.0000   1.0000   1.0000   1.0000   1.0000   1.0000   1.0000   1.0000
     1.0000   1.0000   1.0000   1.0000   1.0000   0.1002   0.0000   0.0000
     0.0000   0.0000   0.0000   0.0000   0.0000   0.0000   0.0000   0.0000
     0.0000   0.0000   0.0000   0.0000   0.0000   0.0000   0.0000   0.0000
     0.0000

          k = 0.0000 0.0000-0.5000 (  6302 PWs)   bands (ev):

  -112.8885-112.8885-112.8873-112.8873-112.8873-112.8873-112.8862-112.8862
   -67.1036 -67.1036 -67.0977 -67.0977 -67.0977 -67.0977 -67.0905 -67.0905
   -67.0688 -67.0688 -67.0634 -67.0634 -67.0634 -67.0634 -67.0633 -67.0633
   -67.0552 -67.0552 -67.0545 -67.0545 -67.0545 -67.0545 -67.0504 -67.0504
    -5.9282  -5.8019  -5.2181  -4.9870  -4.7965  -4.4482  -4.1052   4.8957
     4.8957   5.0161   5.0184   5.0184   5.2607   5.2607   5.2865   5.4339
     5.4743   5.4743   5.4953   5.4970   5.6790   5.8299   5.8299   5.8476
     5.8476   5.8497   5.9197   5.9523   6.0702   6.0702   6.1075   6.1075
     6.1157   6.1839   6.1839   6.2182   6.2214   6.2528   6.2528   6.3598
     6.3656   6.3740   6.3766   6.5060   6.5067   6.7510   6.7510   7.1407
     7.3802   7.3802   7.5626   7.5626   7.9117   8.8628   8.9381   8.9381
     9.1599   9.2764   9.2764   9.4014  10.3154  11.0432  11.3722  11.3722
    11.5486  11.5486  11.9234  11.9234  12.4955  13.3997  15.4334  15.4662
    15.6924  15.6924  16.8275  16.8275  17.4072  17.4651  19.0331  19.0331
    19.4838  19.5736  19.8779  19.8779  21.6337  22.1200  22.4249  22.4249
    23.4854

     occupation numbers 
     1.0000   1.0000   1.0000   1.0000   1.0000   1.0000   1.0000   1.0000
     1.0000   1.0000   1.0000   1.0000   1.0000   1.0000   1.0000   1.0000
     1.0000   1.0000   1.0000   1.0000   1.0000   1.0000   1.0000   1.0000
     1.0000   1.0000   1.0000   1.0000   1.0000   1.0000   1.0000   1.0000
     1.0000   1.0000   1.0000   1.0000   1.0000   1.0000   1.0000   1.0000
     1.0000   1.0000   1.0000   1.0000   1.0000   1.0000   1.0000   1.0000
     1.0000   1.0000   1.0000   1.0000   1.0000   1.0000   1.0000   1.0000
     1.0000   1.0000   1.0000   1.0000   1.0000   1.0000   1.0000   1.0000
     1.0000   1.0000   1.0000   1.0000   1.0000   1.0000   1.0000   1.0000
     1.0000   1.0000   1.0000   1.0000   1.0000   1.0000   1.0000   1.0000
     1.0000   1.0000   1.0000   1.0000   1.0000   1.0000   1.0000   1.0000
     1.0000   1.0000   1.0000   1.0000   1.0000   1.0000   1.0000   1.0000
     1.0000   1.0000   1.0000   1.0000   1.0000   1.0036   0.0000   0.0000
     0.0000   0.0000   0.0000   0.0000   0.0000   0.0000   0.0000   0.0000
     0.0000   0.0000   0.0000   0.0000   0.0000   0.0000   0.0000   0.0000
     0.0000

          k = 0.0000 0.1667 0.1667 (  6304 PWs)   bands (ev):

  -112.8889-112.8879-112.8879-112.8878-112.8869-112.8868-112.8868-112.8858
   -67.1058 -67.1010 -67.1009 -67.1001 -67.0956 -67.0946 -67.0946 -67.0879
   -67.0691 -67.0683 -67.0676 -67.0675 -67.0668 -67.0605 -67.0596 -67.0596
   -67.0570 -67.0569 -67.0558 -67.0523 -67.0516 -67.0516 -67.0511 -67.0503
    -6.2297  -5.4434  -5.3695  -4.9678  -4.6396  -4.5882  -3.9479   4.3273
     4.3654   4.4164   4.9849   4.9976   5.0655   5.4509   5.4680   5.5755
     5.5810   5.5811   5.6215   5.6665   5.7115   5.7865   5.8667   5.8921
     5.9628   5.9669   5.9699   5.9931   5.9947   6.0055   6.0789   6.1285
     6.1880   6.2108   6.2405   6.2561   6.4003   6.4293   6.4513   6.4715
     6.4717   6.4958   6.5048   6.5870   6.6363   6.6528   6.7192   7.3664
     7.3897   7.4030   7.4100   7.4636   7.6324   7.7245   8.0462   8.3381
     9.1801  10.0890  10.3177  10.4093  10.9706  11.1677  11.2242  11.3227
    11.4856  11.7731  11.7762  11.7903  11.9095  14.8568  14.8600  15.0067
    15.0839  15.6329  16.5786  16.7464  17.2497  17.9239  17.9266  18.4822
    18.5765  19.9382  20.3118  20.5138  21.3513  21.7654  21.7804  22.7513
    25.0358

     occupation numbers 
     1.0000   1.0000   1.0000   1.0000   1.0000   1.0000   1.0000   1.0000
     1.0000   1.0000   1.0000   1.0000   1.0000   1.0000   1.0000   1.0000
     1.0000   1.0000   1.0000   1.0000   1.0000   1.0000   1.0000   1.0000
     1.0000   1.0000   1.0000   1.0000   1.0000   1.0000   1.0000   1.0000
     1.0000   1.0000   1.0000   1.0000   1.0000   1.0000   1.0000   1.0000
     1.0000   1.0000   1.0000   1.0000   1.0000   1.0000   1.0000   1.0000
     1.0000   1.0000   1.0000   1.0000   1.0000   1.0000   1.0000   1.0000
     1.0000   1.0000   1.0000   1.0000   1.0000   1.0000   1.0000   1.0000
     1.0000   1.0000   1.0000   1.0000   1.0000   1.0000   1.0000   1.0000
     1.0000   1.0000   1.0000   1.0000   1.0000   1.0000   1.0000   1.0000
     1.0000   1.0000   1.0000   1.0000   1.0000   1.0000   1.0000   1.0000
     1.0000   1.0000   1.0000   1.0000   1.0000   1.0000   1.0000   1.0000
     1.0000   1.0000   1.0000   1.0000   1.0000   0.0000   0.0000   0.0000
     0.0000   0.0000   0.0000   0.0000   0.0000   0.0000   0.0000   0.0000
     0.0000   0.0000   0.0000   0.0000   0.0000   0.0000   0.0000   0.0000
     0.0000

          k = 0.0000 0.1667 0.3333 (  6282 PWs)   bands (ev):

  -112.8887-112.8881-112.8877-112.8875-112.8871-112.8870-112.8866-112.8860
   -67.1046 -67.1018 -67.0996 -67.0987 -67.0965 -67.0956 -67.0930 -67.0891
   -67.0686 -67.0678 -67.0662 -67.0658 -67.0651 -67.0616 -67.0608 -67.0595
   -67.0580 -67.0563 -67.0553 -67.0537 -67.0530 -67.0529 -67.0513 -67.0507
    -6.0628  -5.5748  -5.2968  -4.9991  -4.7328  -4.5443  -4.0746   4.6129
     4.6423   4.8014   5.1016   5.1181   5.2592   5.3756   5.4323   5.4679
     5.4978   5.5506   5.6189   5.6493   5.6661   5.7126   5.7775   5.8335
     5.8858   5.9697   5.9897   6.0131   6.0262   6.0477   6.0661   6.1168
     6.1507   6.1763   6.1899   6.2297   6.2871   6.3038   6.3375   6.3847
     6.4158   6.4408   6.4661   6.4716   6.4971   6.6623   6.6978   7.1705
     7.4035   7.4353   7.5134   7.6111   7.9573   8.2676   8.3247   8.5799
     9.0223   9.5934   9.6839  10.3210  10.4957  10.7459  11.1288  11.2789
    11.2889  11.6730  11.7195  11.8950  12.3029  14.3965  15.0940  15.3889
    15.5294  15.9259  16.2523  16.9682  17.2423  18.4215  18.6254  18.8260
    19.1350  19.9380  20.3297  20.4458  20.6501  21.7803  21.9272  23.5906
    24.1670

     occupation numbers 
     1.0000   1.0000   1.0000   1.0000   1.0000   1.0000   1.0000   1.0000
     1.0000   1.0000   1.0000   1.0000   1.0000   1.0000   1.0000   1.0000
     1.0000   1.0000   1.0000   1.0000   1.0000   1.0000   1.0000   1.0000
     1.0000   1.0000   1.0000   1.0000   1.0000   1.0000   1.0000   1.0000
     1.0000   1.0000   1.0000   1.0000   1.0000   1.0000   1.0000   1.0000
     1.0000   1.0000   1.0000   1.0000   1.0000   1.0000   1.0000   1.0000
     1.0000   1.0000   1.0000   1.0000   1.0000   1.0000   1.0000   1.0000
     1.0000   1.0000   1.0000   1.0000   1.0000   1.0000   1.0000   1.0000
     1.0000   1.0000   1.0000   1.0000   1.0000   1.0000   1.0000   1.0000
     1.0000   1.0000   1.0000   1.0000   1.0000   1.0000   1.0000   1.0000
     1.0000   1.0000   1.0000   1.0000   1.0000   1.0000   1.0000   1.0000
     1.0000   1.0000   1.0000   1.0000   1.0000   1.0000   1.0000   1.0000
     1.0000   1.0000   1.0000   1.0000   1.0000   0.0001   0.0000   0.0000
     0.0000   0.0000   0.0000   0.0000   0.0000   0.0000   0.0000   0.0000
     0.0000   0.0000   0.0000   0.0000   0.0000   0.0000   0.0000   0.0000
     0.0000

          k = 0.0000 0.1667-0.5000 (  6298 PWs)   bands (ev):

  -112.8884-112.8884-112.8874-112.8874-112.8873-112.8873-112.8863-112.8863
   -67.1032 -67.1032 -67.0980 -67.0979 -67.0971 -67.0971 -67.0909 -67.0909
   -67.0682 -67.0682 -67.0635 -67.0635 -67.0630 -67.0630 -67.0628 -67.0628
   -67.0556 -67.0556 -67.0553 -67.0553 -67.0543 -67.0543 -67.0511 -67.0511
    -5.8731  -5.7613  -5.2346  -5.0193  -4.7965  -4.4880  -4.1610   4.9600
     4.9872   4.9905   5.0665   5.1448   5.2432   5.2677   5.3544   5.3931
     5.5034   5.5186   5.5225   5.5364   5.7590   5.7705   5.8107   5.8488
     5.8506   5.8632   5.8925   5.9392   6.0648   6.0917   6.1260   6.1505
     6.1556   6.1905   6.2084   6.2119   6.2170   6.2184   6.2594   6.3469
     6.3505   6.3647   6.3649   6.4805   6.4818   6.6828   6.6847   7.0566
     7.4130   7.4471   7.6249   7.6522   7.9436   8.7504   8.8169   8.9704
     9.1119   9.1193   9.2936   9.4114  10.2822  10.8449  10.9665  11.1937
    11.4044  11.5470  11.7179  11.8920  12.8432  13.7630  15.2802  15.4990
    15.7329  16.0903  16.4187  16.8509  17.7305  18.0233  19.0292  19.2318
    19.7222  19.7770  19.9044  19.9271  21.6818  22.1288  22.2456  22.3663
    23.0825

     occupation numbers 
     1.0000   1.0000   1.0000   1.0000   1.0000   1.0000   1.0000   1.0000
     1.0000   1.0000   1.0000   1.0000   1.0000   1.0000   1.0000   1.0000
     1.0000   1.0000   1.0000   1.0000   1.0000   1.0000   1.0000   1.0000
     1.0000   1.0000   1.0000   1.0000   1.0000   1.0000   1.0000   1.0000
     1.0000   1.0000   1.0000   1.0000   1.0000   1.0000   1.0000   1.0000
     1.0000   1.0000   1.0000   1.0000   1.0000   1.0000   1.0000   1.0000
     1.0000   1.0000   1.0000   1.0000   1.0000   1.0000   1.0000   1.0000
     1.0000   1.0000   1.0000   1.0000   1.0000   1.0000   1.0000   1.0000
     1.0000   1.0000   1.0000   1.0000   1.0000   1.0000   1.0000   1.0000
     1.0000   1.0000   1.0000   1.0000   1.0000   1.0000   1.0000   1.0000
     1.0000   1.0000   1.0000   1.0000   1.0000   1.0000   1.0000   1.0000
     1.0000   1.0000   1.0000   1.0000   1.0000   1.0000   1.0000   1.0000
     1.0000   1.0000   1.0000   1.0000   1.0000   1.0192   0.0000   0.0000
     0.0000   0.0000   0.0000   0.0000   0.0000   0.0000   0.0000   0.0000
     0.0000   0.0000   0.0000   0.0000   0.0000   0.0000   0.0000   0.0000
     0.0000

          k = 0.0000 0.3333 0.3333 (  6270 PWs)   bands (ev):

  -112.8885-112.8879-112.8879-112.8873-112.8873-112.8868-112.8868-112.8862
   -67.1033 -67.1006 -67.1005 -67.0974 -67.0974 -67.0940 -67.0939 -67.0903
   -67.0673 -67.0662 -67.0661 -67.0648 -67.0635 -67.0624 -67.0591 -67.0591
   -67.0590 -67.0587 -67.0555 -67.0548 -67.0544 -67.0526 -67.0526 -67.0517
    -5.9062  -5.5385  -5.3377  -5.0875  -4.7031  -4.6023  -4.2067   4.8467
     4.8741   5.0309   5.2004   5.2160   5.2876   5.3672   5.4205   5.4972
     5.5131   5.5818   5.6186   5.6242   5.6340   5.7095   5.7116   5.7983
     5.9404   5.9838   5.9930   6.0120   6.0449   6.0604   6.1023   6.1072
     6.1398   6.1843   6.2066   6.2450   6.2480   6.2893   6.3183   6.3568
     6.3818   6.4223   6.4228   6.4378   6.4407   6.4744   6.5798   7.0024
     7.5481   7.5491   7.5810   7.7972   8.1846   8.2378   8.4015   8.6968
     9.0912   9.1293   9.4377   9.9738  10.0523  10.3397  10.8305  11.0179
    11.3780  11.3908  11.6288  11.8377  12.9521  14.7199  14.9097  15.1622
    15.9575  16.0558  16.3949  17.0412  17.8584  18.6382  19.0928  19.0991
    19.7736  20.1854  20.5829  20.6351  20.7224  21.2648  21.9048  23.3505
    23.7904

     occupation numbers 
     1.0000   1.0000   1.0000   1.0000   1.0000   1.0000   1.0000   1.0000
     1.0000   1.0000   1.0000   1.0000   1.0000   1.0000   1.0000   1.0000
     1.0000   1.0000   1.0000   1.0000   1.0000   1.0000   1.0000   1.0000
     1.0000   1.0000   1.0000   1.0000   1.0000   1.0000   1.0000   1.0000
     1.0000   1.0000   1.0000   1.0000   1.0000   1.0000   1.0000   1.0000
     1.0000   1.0000   1.0000   1.0000   1.0000   1.0000   1.0000   1.0000
     1.0000   1.0000   1.0000   1.0000   1.0000   1.0000   1.0000   1.0000
     1.0000   1.0000   1.0000   1.0000   1.0000   1.0000   1.0000   1.0000
     1.0000   1.0000   1.0000   1.0000   1.0000   1.0000   1.0000   1.0000
     1.0000   1.0000   1.0000   1.0000   1.0000   1.0000   1.0000   1.0000
     1.0000   1.0000   1.0000   1.0000   1.0000   1.0000   1.0000   1.0000
     1.0000   1.0000   1.0000   1.0000   1.0000   1.0000   1.0000   1.0000
     1.0000   1.0000   1.0000   1.0000   1.0000   0.0000   0.0000   0.0000
     0.0000   0.0000   0.0000   0.0000   0.0000   0.0000   0.0000   0.0000
     0.0000   0.0000   0.0000   0.0000   0.0000   0.0000   0.0000   0.0000
     0.0000

          k = 0.0000 0.3333-0.5000 (  6282 PWs)   bands (ev):

  -112.8882-112.8882-112.8876-112.8876-112.8871-112.8871-112.8865-112.8865
   -67.1019 -67.1019 -67.0989 -67.0989 -67.0956 -67.0956 -67.0920 -67.0920
   -67.0666 -67.0666 -67.0641 -67.0641 -67.0621 -67.0621 -67.0611 -67.0611
   -67.0576 -67.0576 -67.0567 -67.0567 -67.0539 -67.0539 -67.0523 -67.0523
    -5.7233  -5.6593  -5.2870  -5.1770  -4.7118  -4.5684  -4.3031   5.0343
     5.1077   5.1621   5.1816   5.2759   5.2771   5.2860   5.3775   5.4071
     5.5679   5.5778   5.5872   5.6285   5.6649   5.6919   5.8241   5.8582
     5.9265   5.9267   5.9952   6.0020   6.0398   6.1211   6.1230   6.1467
     6.1695   6.1754   6.1757   6.2057   6.2116   6.2742   6.2835   6.3235
     6.3250   6.3481   6.3508   6.4167   6.4182   6.5062   6.5148   6.9383
     7.5894   7.6362   7.7839   7.8701   8.0093   8.3419   8.7617   8.8345
     9.0088   9.0840   9.1383   9.3973   9.7978  10.3694  10.5438  11.0111
    11.2776  11.4861  11.5472  11.8122  13.4774  14.2207  14.9808  15.1714
    16.1219  16.3521  16.5750  16.8816  18.2823  18.6246  18.9724  19.8803
    19.9571  20.1448  20.3764  20.6872  21.7409  21.7898  22.0565  22.1065
    22.2396

     occupation numbers 
     1.0000   1.0000   1.0000   1.0000   1.0000   1.0000   1.0000   1.0000
     1.0000   1.0000   1.0000   1.0000   1.0000   1.0000   1.0000   1.0000
     1.0000   1.0000   1.0000   1.0000   1.0000   1.0000   1.0000   1.0000
     1.0000   1.0000   1.0000   1.0000   1.0000   1.0000   1.0000   1.0000
     1.0000   1.0000   1.0000   1.0000   1.0000   1.0000   1.0000   1.0000
     1.0000   1.0000   1.0000   1.0000   1.0000   1.0000   1.0000   1.0000
     1.0000   1.0000   1.0000   1.0000   1.0000   1.0000   1.0000   1.0000
     1.0000   1.0000   1.0000   1.0000   1.0000   1.0000   1.0000   1.0000
     1.0000   1.0000   1.0000   1.0000   1.0000   1.0000   1.0000   1.0000
     1.0000   1.0000   1.0000   1.0000   1.0000   1.0000   1.0000   1.0000
     1.0000   1.0000   1.0000   1.0000   1.0000   1.0000   1.0000   1.0000
     1.0000   1.0000   1.0000   1.0000   1.0000   1.0000   1.0000   1.0000
     1.0000   1.0000   1.0000   1.0000   1.0142   0.0089   0.0000   0.0000
     0.0000   0.0000   0.0000   0.0000   0.0000   0.0000   0.0000   0.0000
     0.0000   0.0000   0.0000   0.0000   0.0000   0.0000   0.0000   0.0000
     0.0000

          k = 0.0000-0.5000-0.5000 (  6256 PWs)   bands (ev):

  -112.8879-112.8879-112.8879-112.8879-112.8868-112.8868-112.8868-112.8868
   -67.1004 -67.1004 -67.1002 -67.1002 -67.0937 -67.0937 -67.0936 -67.0936
   -67.0651 -67.0651 -67.0650 -67.0650 -67.0604 -67.0604 -67.0600 -67.0600
   -67.0589 -67.0589 -67.0587 -67.0587 -67.0533 -67.0533 -67.0532 -67.0532
    -5.5848  -5.5848  -5.3364  -5.3291  -4.6087  -4.6087  -4.4248   5.0660
     5.2077   5.2077   5.2613   5.2944   5.3423   5.3423   5.3764   5.3890
     5.5203   5.5203   5.6224   5.7126   5.7400   5.7477   5.8202   5.8202
     5.9820   5.9892   6.0491   6.0491   6.0657   6.0696   6.0696   6.0717
     6.1950   6.2038   6.2038   6.2199   6.2390   6.2390   6.2814   6.3408
     6.3408   6.3508   6.3508   6.3605   6.3628   6.3634   6.3834   6.9129
     7.8150   7.9060   7.9060   7.9719   8.0241   8.0241   8.5499   8.9732
     9.0688   9.1255   9.1255   9.1298   9.1307  10.3858  10.3858  10.9707
    11.0184  11.5486  11.5486  11.7508  14.1087  14.3776  14.3776  15.1426
    16.0527  16.7648  16.7648  16.7945  18.6934  18.7944  18.7944  20.0016
    20.7937  20.8408  20.9577  20.9577  20.9986  21.8442  21.8442  22.1578
    22.2145

     occupation numbers 
     1.0000   1.0000   1.0000   1.0000   1.0000   1.0000   1.0000   1.0000
     1.0000   1.0000   1.0000   1.0000   1.0000   1.0000   1.0000   1.0000
     1.0000   1.0000   1.0000   1.0000   1.0000   1.0000   1.0000   1.0000
     1.0000   1.0000   1.0000   1.0000   1.0000   1.0000   1.0000   1.0000
     1.0000   1.0000   1.0000   1.0000   1.0000   1.0000   1.0000   1.0000
     1.0000   1.0000   1.0000   1.0000   1.0000   1.0000   1.0000   1.0000
     1.0000   1.0000   1.0000   1.0000   1.0000   1.0000   1.0000   1.0000
     1.0000   1.0000   1.0000   1.0000   1.0000   1.0000   1.0000   1.0000
     1.0000   1.0000   1.0000   1.0000   1.0000   1.0000   1.0000   1.0000
     1.0000   1.0000   1.0000   1.0000   1.0000   1.0000   1.0000   1.0000
     1.0000   1.0000   1.0000   1.0000   1.0000   1.0000   1.0000   1.0000
     1.0000   1.0000   1.0000   1.0000   1.0000   1.0000   1.0000   1.0000
     1.0000   1.0000   1.0000   1.0000   0.0668   0.0002   0.0002   0.0000
     0.0000   0.0000   0.0000   0.0000   0.0000   0.0000   0.0000   0.0000
     0.0000   0.0000   0.0000   0.0000   0.0000   0.0000   0.0000   0.0000
     0.0000

          k = 0.1667 0.1667 0.1667 (  6298 PWs)   bands (ev):

  -112.8888-112.8878-112.8878-112.8878-112.8869-112.8869-112.8869-112.8859
   -67.1053 -67.1005 -67.1004 -67.1004 -67.0950 -67.0950 -67.0950 -67.0883
   -67.0682 -67.0682 -67.0669 -67.0669 -67.0669 -67.0600 -67.0600 -67.0599
   -67.0569 -67.0567 -67.0567 -67.0523 -67.0522 -67.0522 -67.0511 -67.0511
    -6.1707  -5.4058  -5.4058  -4.9779  -4.6372  -4.6372  -4.0014   4.4359
     4.5087   4.5087   5.0304   5.0304   5.1476   5.4758   5.4758   5.5764
     5.5764   5.6071   5.6071   5.6094   5.6678   5.8177   5.8885   5.9009
     5.9009   5.9236   5.9236   5.9808   6.0308   6.0308   6.1019   6.1023
     6.1023   6.1333   6.2750   6.2750   6.3698   6.4257   6.4257   6.4600
     6.4802   6.4802   6.5134   6.5509   6.5509   6.6499   6.6499   7.2880
     7.4059   7.4059   7.4695   7.5669   7.5669   7.8227   8.3719   8.3719
     8.9791   9.9284  10.2903  10.2903  10.9292  10.9292  11.2096  11.2096
    11.3192  11.6470  11.7475  11.7475  12.0190  14.9504  15.1534  15.1534
    15.1889  15.8910  15.8910  16.5975  17.8222  18.1545  18.1545  18.8288
    18.8288  19.7948  20.3132  20.3132  21.4198  21.4198  21.8036  23.2772
    25.0461

     occupation numbers 
     1.0000   1.0000   1.0000   1.0000   1.0000   1.0000   1.0000   1.0000
     1.0000   1.0000   1.0000   1.0000   1.0000   1.0000   1.0000   1.0000
     1.0000   1.0000   1.0000   1.0000   1.0000   1.0000   1.0000   1.0000
     1.0000   1.0000   1.0000   1.0000   1.0000   1.0000   1.0000   1.0000
     1.0000   1.0000   1.0000   1.0000   1.0000   1.0000   1.0000   1.0000
     1.0000   1.0000   1.0000   1.0000   1.0000   1.0000   1.0000   1.0000
     1.0000   1.0000   1.0000   1.0000   1.0000   1.0000   1.0000   1.0000
     1.0000   1.0000   1.0000   1.0000   1.0000   1.0000   1.0000   1.0000
     1.0000   1.0000   1.0000   1.0000   1.0000   1.0000   1.0000   1.0000
     1.0000   1.0000   1.0000   1.0000   1.0000   1.0000   1.0000   1.0000
     1.0000   1.0000   1.0000   1.0000   1.0000   1.0000   1.0000   1.0000
     1.0000   1.0000   1.0000   1.0000   1.0000   1.0000   1.0000   1.0000
     1.0000   1.0000   1.0000   1.0000   1.0000   0.0000   0.0000   0.0000
     0.0000   0.0000   0.0000   0.0000   0.0000   0.0000   0.0000   0.0000
     0.0000   0.0000   0.0000   0.0000   0.0000   0.0000   0.0000   0.0000
     0.0000

          k = 0.1667 0.1667 0.3333 (  6288 PWs)   bands (ev):

  -112.8886-112.8880-112.8876-112.8876-112.8871-112.8871-112.8866-112.8861
   -67.1041 -67.1013 -67.0991 -67.0990 -67.0959 -67.0959 -67.0933 -67.0895
   -67.0680 -67.0672 -67.0659 -67.0652 -67.0652 -67.0610 -67.0610 -67.0594
   -67.0583 -67.0563 -67.0562 -67.0537 -67.0537 -67.0532 -67.0520 -67.0513
    -6.0070  -5.5392  -5.3120  -5.0033  -4.7535  -4.5891  -4.1300   4.6979
     4.7610   4.8781   5.1354   5.1565   5.3323   5.3955   5.4000   5.5031
     5.5057   5.5728   5.5944   5.6697   5.6779   5.7049   5.8188   5.8406
     5.8927   5.9221   5.9446   5.9855   5.9980   6.0542   6.0651   6.1338
     6.1479   6.1632   6.2357   6.2681   6.2898   6.3131   6.3592   6.3676
     6.4053   6.4166   6.4369   6.4501   6.4739   6.5990   6.6411   7.0654
     7.4367   7.4650   7.5039   7.7095   7.8787   8.3321   8.3932   8.6741
     8.9706   9.2642   9.8757  10.2493  10.4112  10.6108  11.0613  11.0719
    11.1225  11.4993  11.6542  11.7086  12.5897  14.6004  15.1088  15.3634
    15.7277  15.9406  16.4011  16.4495  17.9594  18.5376  18.7737  19.2210
    19.3805  19.8627  20.2601  20.5163  20.7542  21.6742  21.8297  23.5780
    24.1545

     occupation numbers 
     1.0000   1.0000   1.0000   1.0000   1.0000   1.0000   1.0000   1.0000
     1.0000   1.0000   1.0000   1.0000   1.0000   1.0000   1.0000   1.0000
     1.0000   1.0000   1.0000   1.0000   1.0000   1.0000   1.0000   1.0000
     1.0000   1.0000   1.0000   1.0000   1.0000   1.0000   1.0000   1.0000
     1.0000   1.0000   1.0000   1.0000   1.0000   1.0000   1.0000   1.0000
     1.0000   1.0000   1.0000   1.0000   1.0000   1.0000   1.0000   1.0000
     1.0000   1.0000   1.0000   1.0000   1.0000   1.0000   1.0000   1.0000
     1.0000   1.0000   1.0000   1.0000   1.0000   1.0000   1.0000   1.0000
     1.0000   1.0000   1.0000   1.0000   1.0000   1.0000   1.0000   1.0000
     1.0000   1.0000   1.0000   1.0000   1.0000   1.0000   1.0000   1.0000
     1.0000   1.0000   1.0000   1.0000   1.0000   1.0000   1.0000   1.0000
     1.0000   1.0000   1.0000   1.0000   1.0000   1.0000   1.0000   1.0000
     1.0000   1.0000   1.0000   1.0000   1.0000   0.0000   0.0000   0.0000
     0.0000   0.0000   0.0000   0.0000   0.0000   0.0000   0.0000   0.0000
     0.0000   0.0000   0.0000   0.0000   0.0000   0.0000   0.0000   0.0000
     0.0000

          k = 0.1667 0.1667-0.5000 (  6300 PWs)   bands (ev):

  -112.8883-112.8883-112.8873-112.8873-112.8873-112.8873-112.8864-112.8864
   -67.1027 -67.1027 -67.0974 -67.0974 -67.0974 -67.0974 -67.0913 -67.0913
   -67.0676 -67.0676 -67.0630 -67.0630 -67.0630 -67.0630 -67.0628 -67.0628
   -67.0559 -67.0558 -67.0552 -67.0552 -67.0552 -67.0552 -67.0517 -67.0516
    -5.8189  -5.7203  -5.2468  -5.0154  -4.8300  -4.5323  -4.2189   5.0126
     5.0551   5.0564   5.1327   5.2061   5.2369   5.3186   5.4024   5.4324
     5.4647   5.5343   5.5632   5.5679   5.7628   5.7737   5.8166   5.8613
     5.8670   5.8695   5.8918   5.9273   5.9836   6.1427   6.1475   6.1673
     6.1864   6.1993   6.2035   6.2049   6.2252   6.2412   6.2423   6.3345
     6.3396   6.3443   6.3457   6.4494   6.4511   6.6248   6.6269   6.9695
     7.4566   7.4717   7.6761   7.7182   7.9613   8.5078   8.5886   9.1068
     9.1176   9.2382   9.2945   9.4309  10.2062  10.6796  10.8591  11.0794
    11.1910  11.3653  11.6482  11.6984  13.0858  14.0079  15.1746  15.4334
    15.9562  16.2208  16.3343  16.7719  18.0060  18.4568  19.2550  19.2791
    19.8721  19.9407  19.9842  20.1575  21.7206  22.1519  22.1980  22.2611
    22.9963

     occupation numbers 
     1.0000   1.0000   1.0000   1.0000   1.0000   1.0000   1.0000   1.0000
     1.0000   1.0000   1.0000   1.0000   1.0000   1.0000   1.0000   1.0000
     1.0000   1.0000   1.0000   1.0000   1.0000   1.0000   1.0000   1.0000
     1.0000   1.0000   1.0000   1.0000   1.0000   1.0000   1.0000   1.0000
     1.0000   1.0000   1.0000   1.0000   1.0000   1.0000   1.0000   1.0000
     1.0000   1.0000   1.0000   1.0000   1.0000   1.0000   1.0000   1.0000
     1.0000   1.0000   1.0000   1.0000   1.0000   1.0000   1.0000   1.0000
     1.0000   1.0000   1.0000   1.0000   1.0000   1.0000   1.0000   1.0000
     1.0000   1.0000   1.0000   1.0000   1.0000   1.0000   1.0000   1.0000
     1.0000   1.0000   1.0000   1.0000   1.0000   1.0000   1.0000   1.0000
     1.0000   1.0000   1.0000   1.0000   1.0000   1.0000   1.0000   1.0000
     1.0000   1.0000   1.0000   1.0000   1.0000   1.0000   1.0000   1.0000
     1.0000   1.0000   1.0000   1.0000   1.0000   0.2483   0.0000   0.0000
     0.0000   0.0000   0.0000   0.0000   0.0000   0.0000   0.0000   0.0000
     0.0000   0.0000   0.0000   0.0000   0.0000   0.0000   0.0000   0.0000
     0.0000

          k = 0.1667 0.3333 0.3333 (  6277 PWs)   bands (ev):

  -112.8884-112.8878-112.8878-112.8874-112.8873-112.8868-112.8868-112.8863
   -67.1029 -67.1000 -67.0999 -67.0977 -67.0969 -67.0944 -67.0943 -67.0906
   -67.0667 -67.0655 -67.0654 -67.0647 -67.0635 -67.0619 -67.0594 -67.0593
   -67.0589 -67.0586 -67.0557 -67.0555 -67.0544 -67.0534 -67.0534 -67.0524
    -5.8534  -5.4951  -5.3415  -5.0633  -4.7512  -4.6603  -4.2659   4.9105
     5.0028   5.0939   5.2457   5.2602   5.3358   5.3619   5.4737   5.5333
     5.5765   5.5800   5.6034   5.6347   5.6485   5.6954   5.7648   5.8297
     5.9448   5.9527   5.9673   5.9681   6.0045   6.0288   6.0723   6.1648
     6.1676   6.1990   6.2502   6.2676   6.2753   6.2925   6.3092   6.3460
     6.3722   6.3769   6.3911   6.4045   6.4139   6.4410   6.5260   6.8950
     7.5199   7.5661   7.5778   7.8035   7.9617   8.2353   8.5651   8.8277
     8.9000   9.1107   9.7379   9.9600  10.0695  10.2418  10.7721  10.8961
    11.0862  11.3187  11.3819  11.6022  13.1392  14.7622  14.9355  15.1372
    16.0166  16.2094  16.4676  16.6598  18.4372  18.9520  19.0926  19.5837
    19.9108  20.3187  20.4824  20.8169  20.8865  21.3164  21.8145  23.2400
    23.3189

     occupation numbers 
     1.0000   1.0000   1.0000   1.0000   1.0000   1.0000   1.0000   1.0000
     1.0000   1.0000   1.0000   1.0000   1.0000   1.0000   1.0000   1.0000
     1.0000   1.0000   1.0000   1.0000   1.0000   1.0000   1.0000   1.0000
     1.0000   1.0000   1.0000   1.0000   1.0000   1.0000   1.0000   1.0000
     1.0000   1.0000   1.0000   1.0000   1.0000   1.0000   1.0000   1.0000
     1.0000   1.0000   1.0000   1.0000   1.0000   1.0000   1.0000   1.0000
     1.0000   1.0000   1.0000   1.0000   1.0000   1.0000   1.0000   1.0000
     1.0000   1.0000   1.0000   1.0000   1.0000   1.0000   1.0000   1.0000
     1.0000   1.0000   1.0000   1.0000   1.0000   1.0000   1.0000   1.0000
     1.0000   1.0000   1.0000   1.0000   1.0000   1.0000   1.0000   1.0000
     1.0000   1.0000   1.0000   1.0000   1.0000   1.0000   1.0000   1.0000
     1.0000   1.0000   1.0000   1.0000   1.0000   1.0000   1.0000   1.0000
     1.0000   1.0000   1.0000   1.0000   1.0000   0.0000   0.0000   0.0000
     0.0000   0.0000   0.0000   0.0000   0.0000   0.0000   0.0000   0.0000
     0.0000   0.0000   0.0000   0.0000   0.0000   0.0000   0.0000   0.0000
     0.0000

          k = 0.1667 0.3333-0.5000 (  6292 PWs)   bands (ev):

  -112.8881-112.8881-112.8875-112.8875-112.8871-112.8871-112.8866-112.8866
   -67.1014 -67.1014 -67.0984 -67.0984 -67.0959 -67.0959 -67.0924 -67.0924
   -67.0660 -67.0659 -67.0634 -67.0634 -67.0620 -67.0620 -67.0613 -67.0613
   -67.0575 -67.0574 -67.0569 -67.0569 -67.0549 -67.0549 -67.0530 -67.0530
    -5.6721  -5.6166  -5.2893  -5.1333  -4.7768  -4.6239  -4.3663   5.0917
     5.2038   5.2387   5.2471   5.2972   5.3210   5.3623   5.4335   5.4622
     5.5430   5.5906   5.6027   5.6448   5.6703   5.7141   5.8249   5.8534
     5.9255   5.9306   5.9763   5.9764   6.0565   6.1145   6.1210   6.1669
     6.1716   6.1877   6.2047   6.2238   6.2326   6.2641   6.2958   6.3082
     6.3084   6.3160   6.3191   6.3734   6.3769   6.4678   6.4737   6.8339
     7.5653   7.6193   7.7318   7.9211   7.9450   8.1954   8.3684   9.1054
     9.1719   9.2477   9.2959   9.4607   9.8104  10.3037  10.4822  10.8996
    11.1803  11.2012  11.2812  11.5630  13.6036  14.3183  14.9462  15.1212
    16.1620  16.4635  16.5256  16.7592  18.5645  19.0143  19.2986  20.0062
    20.1504  20.4381  20.5806  20.8119  21.7666  21.8111  22.1297  22.2348
    22.2510

     occupation numbers 
     1.0000   1.0000   1.0000   1.0000   1.0000   1.0000   1.0000   1.0000
     1.0000   1.0000   1.0000   1.0000   1.0000   1.0000   1.0000   1.0000
     1.0000   1.0000   1.0000   1.0000   1.0000   1.0000   1.0000   1.0000
     1.0000   1.0000   1.0000   1.0000   1.0000   1.0000   1.0000   1.0000
     1.0000   1.0000   1.0000   1.0000   1.0000   1.0000   1.0000   1.0000
     1.0000   1.0000   1.0000   1.0000   1.0000   1.0000   1.0000   1.0000
     1.0000   1.0000   1.0000   1.0000   1.0000   1.0000   1.0000   1.0000
     1.0000   1.0000   1.0000   1.0000   1.0000   1.0000   1.0000   1.0000
     1.0000   1.0000   1.0000   1.0000   1.0000   1.0000   1.0000   1.0000
     1.0000   1.0000   1.0000   1.0000   1.0000   1.0000   1.0000   1.0000
     1.0000   1.0000   1.0000   1.0000   1.0000   1.0000   1.0000   1.0000
     1.0000   1.0000   1.0000   1.0000   1.0000   1.0000   1.0000   1.0000
     1.0000   1.0000   1.0000   1.0000   1.0623   0.0009   0.0000   0.0000
     0.0000   0.0000   0.0000   0.0000   0.0000   0.0000   0.0000   0.0000
     0.0000   0.0000   0.0000   0.0000   0.0000   0.0000   0.0000   0.0000
     0.0000

          k = 0.1667-0.5000-0.5000 (  6276 PWs)   bands (ev):

  -112.8878-112.8878-112.8878-112.8878-112.8868-112.8868-112.8868-112.8868
   -67.0999 -67.0998 -67.0997 -67.0997 -67.0941 -67.0941 -67.0940 -67.0940
   -67.0644 -67.0644 -67.0643 -67.0643 -67.0603 -67.0603 -67.0600 -67.0599
   -67.0590 -67.0590 -67.0588 -67.0588 -67.0542 -67.0542 -67.0542 -67.0542
    -5.5387  -5.5387  -5.3350  -5.2762  -4.6712  -4.6712  -4.4947   5.1349
     5.2969   5.2969   5.3426   5.3662   5.3994   5.3994   5.4067   5.4199
     5.5514   5.5514   5.5867   5.7306   5.7379   5.7446   5.8218   5.8218
     6.0012   6.0023   6.0422   6.0422   6.0667   6.0723   6.0723   6.0725
     6.1929   6.2085   6.2085   6.2551   6.2655   6.2655   6.2678   6.3085
     6.3085   6.3101   6.3114   6.3187   6.3187   6.3340   6.3543   6.8024
     7.7388   7.7388   7.7436   7.8278   8.0767   8.0767   8.3004   9.1950
     9.2571   9.2576   9.2576   9.2885   9.3066  10.3252  10.3252  10.8412
    10.8868  11.2691  11.2691  11.4684  14.1516  14.4144  14.4144  15.0796
    16.1660  16.6551  16.6551  16.7659  18.9243  19.2238  19.2238  20.3443
    20.9892  21.0347  21.0806  21.0806  21.1724  21.9673  21.9673  22.2911
    22.2911

     occupation numbers 
     1.0000   1.0000   1.0000   1.0000   1.0000   1.0000   1.0000   1.0000
     1.0000   1.0000   1.0000   1.0000   1.0000   1.0000   1.0000   1.0000
     1.0000   1.0000   1.0000   1.0000   1.0000   1.0000   1.0000   1.0000
     1.0000   1.0000   1.0000   1.0000   1.0000   1.0000   1.0000   1.0000
     1.0000   1.0000   1.0000   1.0000   1.0000   1.0000   1.0000   1.0000
     1.0000   1.0000   1.0000   1.0000   1.0000   1.0000   1.0000   1.0000
     1.0000   1.0000   1.0000   1.0000   1.0000   1.0000   1.0000   1.0000
     1.0000   1.0000   1.0000   1.0000   1.0000   1.0000   1.0000   1.0000
[...]
     7.2949   7.3423   7.3423   7.4474   7.8972   7.8972   7.9503   9.4129
     9.4202   9.4300   9.4418   9.4418   9.6036   9.9251   9.9251  10.3401
    10.3521  10.5119  10.5119  10.5337  14.1959  14.3006  14.3006  14.8192
    16.0912  16.2776  16.2776  16.3972  19.3554  19.8059  19.8059  20.9644
    21.1670  21.2686  21.2686  21.3439  21.4028  21.8118  21.8118  22.0856
    22.3229

     occupation numbers 
     1.0000   1.0000   1.0000   1.0000   1.0000   1.0000   1.0000   1.0000
     1.0000   1.0000   1.0000   1.0000   1.0000   1.0000   1.0000   1.0000
     1.0000   1.0000   1.0000   1.0000   1.0000   1.0000   1.0000   1.0000
     1.0000   1.0000   1.0000   1.0000   1.0000   1.0000   1.0000   1.0000
     1.0000   1.0000   1.0000   1.0000   1.0000   1.0000   1.0000   1.0000
     1.0000   1.0000   1.0000   1.0000   1.0000   1.0000   1.0000   1.0000
     1.0000   1.0000   1.0000   1.0000   1.0000   1.0000   1.0000   1.0000
     1.0000   1.0000   1.0000   1.0000   1.0000   1.0000   1.0000   1.0000
     1.0000   1.0000   1.0000   1.0000   1.0000   1.0000   1.0000   1.0000
     1.0000   1.0000   1.0000   1.0000   1.0000   1.0000   1.0000   1.0000
     1.0000   1.0000   1.0000   1.0000   1.0000   1.0000   1.0000   1.0000
     1.0000   1.0000   1.0000   1.0000   1.0000   1.0000   1.0000   1.0000
     1.0000   1.0000   1.0000   1.0000   0.0005   0.0000   0.0000   0.0000
     0.0000   0.0000   0.0000   0.0000   0.0000   0.0000   0.0000   0.0000
     0.0000   0.0000   0.0000   0.0000   0.0000   0.0000   0.0000   0.0000
     0.0000

          k =-0.4983-0.4983-0.4983 (  6272 PWs)   bands (ev):

  -113.0573-113.0571-113.0571-113.0571-113.0569-113.0569-113.0569-113.0567
   -67.2689 -67.2679 -67.2679 -67.2679 -67.2669 -67.2669 -67.2669 -67.2662
   -67.2297 -67.2297 -67.2295 -67.2295 -67.2295 -67.2288 -67.2288 -67.2288
   -67.2283 -67.2283 -67.2283 -67.2273 -67.2273 -67.2273 -67.2271 -67.2271
    -5.3598  -5.3598  -5.3598  -5.3083  -5.1346  -5.1346  -5.1346   5.3977
     5.3977   5.3977   5.3996   5.4045   5.4045   5.4610   5.4610   5.4610
     5.4857   5.4857   5.4902   5.4902   5.4902   5.6615   5.6615   5.6615
     5.9085   5.9085   5.9085   5.9220   5.9220   5.9488   5.9488   5.9488
     5.9605   5.9605   5.9605   5.9609   5.9609   5.9609   6.0004   6.0004
     6.0687   6.1116   6.1116   6.1116   6.1694   6.1694   6.1694   6.2391
     7.2539   7.2539   7.2539   7.2994   7.8906   7.8906   7.8906   9.7485
     9.7485   9.8075   9.8075   9.8075   9.8586   9.8586   9.8586   9.9509
     9.9509  10.0151  10.0151  10.0151  14.2909  14.2909  14.2909  14.7163
    16.2450  16.2450  16.2450  16.3075  20.1915  20.1915  20.1915  20.5666
    21.7550  21.7550  21.7550  21.8253  21.8253  22.0120  22.0379  22.0379
    22.0379

     occupation numbers 
     1.0000   1.0000   1.0000   1.0000   1.0000   1.0000   1.0000   1.0000
     1.0000   1.0000   1.0000   1.0000   1.0000   1.0000   1.0000   1.0000
     1.0000   1.0000   1.0000   1.0000   1.0000   1.0000   1.0000   1.0000
     1.0000   1.0000   1.0000   1.0000   1.0000   1.0000   1.0000   1.0000
     1.0000   1.0000   1.0000   1.0000   1.0000   1.0000   1.0000   1.0000
     1.0000   1.0000   1.0000   1.0000   1.0000   1.0000   1.0000   1.0000
     1.0000   1.0000   1.0000   1.0000   1.0000   1.0000   1.0000   1.0000
     1.0000   1.0000   1.0000   1.0000   1.0000   1.0000   1.0000   1.0000
     1.0000   1.0000   1.0000   1.0000   1.0000   1.0000   1.0000   1.0000
     1.0000   1.0000   1.0000   1.0000   1.0000   1.0000   1.0000   1.0000
     1.0000   1.0000   1.0000   1.0000   1.0000   1.0000   1.0000   1.0000
     1.0000   1.0000   1.0000   1.0000   1.0000   1.0000   1.0000   1.0000
     1.0000   1.0000   1.0000   1.0000   0.0000   0.0000   0.0000   0.0000
     0.0000   0.0000   0.0000   0.0000   0.0000   0.0000   0.0000   0.0000
     0.0000   0.0000   0.0000   0.0000   0.0000   0.0000   0.0000   0.0000
     0.0000

     the Fermi energy is    13.8091 ev

!    total energy              =   -3983.72429444 Ry
     estimated scf accuracy    <          5.7E-10 Ry
     smearing contrib. (-TS)   =       0.00040195 Ry
     internal energy E=F+TS    =   -3983.72469639 Ry

     The total energy is F=E-TS. E is the sum of the following terms:
     one-electron contribution =   -2913.78286598 Ry
     hartree contribution      =    1554.92118552 Ry
     xc contribution           =    -389.88777672 Ry
     ewald contribution        =   -2168.22149799 Ry
     one-center paw contrib.   =     -66.75374122 Ry
      -> PAW hartree energy AE =     178.24315776 Ry
      -> PAW hartree energy PS =    -177.47089548 Ry
      -> PAW xc energy AE      =    -116.02396697 Ry
      -> PAW xc energy PS      =      48.49796348 Ry
      -> total E_H with PAW    =    1555.69344781 Ry
      -> total E_XC with PAW   =    -457.41378022 Ry

     convergence has been achieved in  11 iterations

     Forces acting on atoms (cartesian axes, Ry/au):

     atom    1 type  2   force =    -0.00001965   -0.00001965   -0.00001965
     atom    2 type  1   force =     0.00000000    0.00000000    0.00000000
     atom    3 type  2   force =    -0.00001965   -0.00001965    0.00001965
     atom    4 type  1   force =     0.00000000    0.00000000    0.00000000
     atom    5 type  2   force =    -0.00001965    0.00001965   -0.00001965
     atom    6 type  1   force =     0.00000000    0.00000000    0.00000000
     atom    7 type  2   force =    -0.00001965    0.00001965    0.00001965
     atom    8 type  1   force =     0.00000000    0.00000000    0.00000000
     atom    9 type  2   force =     0.00001965   -0.00001965   -0.00001965
     atom   10 type  1   force =     0.00000000    0.00000000    0.00000000
     atom   11 type  2   force =     0.00001965   -0.00001965    0.00001965
     atom   12 type  1   force =     0.00000000    0.00000000    0.00000000
     atom   13 type  2   force =     0.00001965    0.00001965   -0.00001965
     atom   14 type  1   force =     0.00000000    0.00000000    0.00000000
     atom   15 type  2   force =     0.00001965    0.00001965    0.00001965
     The non-local contrib.  to forces
     atom    1 type  2   force =    -0.00790729   -0.00790729   -0.00790729
     atom    2 type  1   force =     0.00000000    0.00000000    0.00000000
     atom    3 type  2   force =    -0.00790729   -0.00790729    0.00790729
     atom    4 type  1   force =     0.00000000    0.00000000    0.00000000
     atom    5 type  2   force =    -0.00790729    0.00790729   -0.00790729
     atom    6 type  1   force =     0.00000000    0.00000000    0.00000000
     atom    7 type  2   force =    -0.00790729    0.00790729    0.00790729
     atom    8 type  1   force =     0.00000000    0.00000000    0.00000000
     atom    9 type  2   force =     0.00790729   -0.00790729   -0.00790729
     atom   10 type  1   force =     0.00000000    0.00000000    0.00000000
     atom   11 type  2   force =     0.00790729   -0.00790729    0.00790729
     atom   12 type  1   force =     0.00000000    0.00000000    0.00000000
     atom   13 type  2   force =     0.00790729    0.00790729   -0.00790729
     atom   14 type  1   force =     0.00000000    0.00000000    0.00000000
     atom   15 type  2   force =     0.00790729    0.00790729    0.00790729
     The ionic contribution  to forces
     atom    1 type  2   force =    -7.80056647   -7.80056647   -7.80056647
     atom    2 type  1   force =     0.00000000    0.00000000    0.00000000
     atom    3 type  2   force =    -7.80056647   -7.80056647    7.80056647
     atom    4 type  1   force =     0.00000000    0.00000000    0.00000000
     atom    5 type  2   force =    -7.80056647    7.80056647   -7.80056647
     atom    6 type  1   force =     0.00000000    0.00000000    0.00000000
     atom    7 type  2   force =    -7.80056647    7.80056647    7.80056647
     atom    8 type  1   force =     0.00000000    0.00000000    0.00000000
     atom    9 type  2   force =     7.80056647   -7.80056647   -7.80056647
     atom   10 type  1   force =     0.00000000    0.00000000    0.00000000
     atom   11 type  2   force =     7.80056647   -7.80056647    7.80056647
     atom   12 type  1   force =     0.00000000    0.00000000    0.00000000
     atom   13 type  2   force =     7.80056647    7.80056647   -7.80056647
     atom   14 type  1   force =     0.00000000    0.00000000    0.00000000
     atom   15 type  2   force =     7.80056647    7.80056647    7.80056647
     The local contribution  to forces
     atom    1 type  2   force =     7.80843239    7.80843239    7.80843239
     atom    2 type  1   force =     0.00000000    0.00000000    0.00000000
     atom    3 type  2   force =     7.80843239    7.80843239   -7.80843239
     atom    4 type  1   force =     0.00000000    0.00000000    0.00000000
     atom    5 type  2   force =     7.80843239   -7.80843239    7.80843239
     atom    6 type  1   force =    -0.00000000    0.00000000    0.00000000
     atom    7 type  2   force =     7.80843239   -7.80843239   -7.80843239
     atom    8 type  1   force =    -0.00000000   -0.00000000    0.00000000
     atom    9 type  2   force =    -7.80843239    7.80843239    7.80843239
     atom   10 type  1   force =     0.00000000   -0.00000000    0.00000000
     atom   11 type  2   force =    -7.80843239    7.80843239   -7.80843239
     atom   12 type  1   force =    -0.00000000   -0.00000000    0.00000000
     atom   13 type  2   force =    -7.80843239   -7.80843239    7.80843239
     atom   14 type  1   force =    -0.00000000   -0.00000000   -0.00000000
     atom   15 type  2   force =    -7.80843239   -7.80843239   -7.80843239
     The core correction contribution to forces
     atom    1 type  2   force =     0.00000000    0.00000000    0.00000000
     atom    2 type  1   force =    -0.00000000   -0.00000000   -0.00000000
     atom    3 type  2   force =     0.00000000    0.00000000    0.00000000
     atom    4 type  1   force =    -0.00000000   -0.00000000   -0.00000000
     atom    5 type  2   force =     0.00000000    0.00000000    0.00000000
     atom    6 type  1   force =    -0.00000000   -0.00000000   -0.00000000
     atom    7 type  2   force =     0.00000000    0.00000000    0.00000000
     atom    8 type  1   force =    -0.00000000   -0.00000000   -0.00000000
     atom    9 type  2   force =     0.00000000    0.00000000    0.00000000
     atom   10 type  1   force =    -0.00000000   -0.00000000   -0.00000000
     atom   11 type  2   force =     0.00000000    0.00000000    0.00000000
     atom   12 type  1   force =    -0.00000000   -0.00000000   -0.00000000
     atom   13 type  2   force =     0.00000000    0.00000000    0.00000000
     atom   14 type  1   force =    -0.00000000   -0.00000000   -0.00000000
     atom   15 type  2   force =     0.00000000    0.00000000    0.00000000
     The Hubbard contrib.    to forces
     atom    1 type  2   force =     0.00000000    0.00000000    0.00000000
     atom    2 type  1   force =     0.00000000    0.00000000    0.00000000
     atom    3 type  2   force =     0.00000000    0.00000000    0.00000000
     atom    4 type  1   force =     0.00000000    0.00000000    0.00000000
     atom    5 type  2   force =     0.00000000    0.00000000    0.00000000
     atom    6 type  1   force =     0.00000000    0.00000000    0.00000000
     atom    7 type  2   force =     0.00000000    0.00000000    0.00000000
     atom    8 type  1   force =     0.00000000    0.00000000    0.00000000
     atom    9 type  2   force =     0.00000000    0.00000000    0.00000000
     atom   10 type  1   force =     0.00000000    0.00000000    0.00000000
     atom   11 type  2   force =     0.00000000    0.00000000    0.00000000
     atom   12 type  1   force =     0.00000000    0.00000000    0.00000000
     atom   13 type  2   force =     0.00000000    0.00000000    0.00000000
     atom   14 type  1   force =     0.00000000    0.00000000    0.00000000
     atom   15 type  2   force =     0.00000000    0.00000000    0.00000000
     The SCF correction term to forces
     atom    1 type  2   force =     0.00002171    0.00002171    0.00002171
     atom    2 type  1   force =    -0.00000000   -0.00000000   -0.00000000
     atom    3 type  2   force =     0.00002171    0.00002171   -0.00002171
     atom    4 type  1   force =    -0.00000000   -0.00000000   -0.00000000
     atom    5 type  2   force =     0.00002171   -0.00002171    0.00002171
     atom    6 type  1   force =    -0.00000000   -0.00000000   -0.00000000
     atom    7 type  2   force =     0.00002171   -0.00002171   -0.00002171
     atom    8 type  1   force =    -0.00000000   -0.00000000   -0.00000000
     atom    9 type  2   force =    -0.00002171    0.00002171    0.00002171
     atom   10 type  1   force =    -0.00000000   -0.00000000   -0.00000000
     atom   11 type  2   force =    -0.00002171    0.00002171   -0.00002171
     atom   12 type  1   force =    -0.00000000   -0.00000000   -0.00000000
     atom   13 type  2   force =    -0.00002171   -0.00002171    0.00002171
     atom   14 type  1   force =    -0.00000000   -0.00000000   -0.00000000
     atom   15 type  2   force =    -0.00002171   -0.00002171   -0.00002171

     Total force =     0.000096     Total SCF correction =     0.000106
     SCF correction compared to forces is large: reduce conv_thr to get better values


     Computing stress (Cartesian axis) and pressure

          total   stress  (Ry/bohr**3)                   (kbar)     P=        0.12
   0.00000084   0.00000000   0.00000000            0.12        0.00        0.00
   0.00000000   0.00000084   0.00000000            0.00        0.12        0.00
   0.00000000   0.00000000   0.00000084            0.00        0.00        0.12

     kinetic stress (kbar)  40451.11      0.00      0.00
                                0.00  40451.11      0.00
                                0.00      0.00  40451.11

     local   stress (kbar)   6214.27      0.00     -0.00
                                0.00   6214.27     -0.00
                               -0.00     -0.00   6214.27

     nonloc. stress (kbar)  -1198.93      0.00      0.00
                                0.00  -1198.93      0.00
                                0.00      0.00  -1198.93

     hartree stress (kbar)  71651.12     -0.00      0.00
                               -0.00  71651.12      0.00
                                0.00      0.00  71651.12

     exc-cor stress (kbar) -16794.12      0.00     -0.00
                                0.00 -16794.12      0.00
                               -0.00      0.00 -16794.12

     corecor stress (kbar)   -411.20      0.00     -0.00
                                0.00   -411.20     -0.00
                               -0.00     -0.00   -411.20

     ewald   stress (kbar) -99912.14      0.00      0.00
                                0.00 -99912.14      0.00
                                0.00      0.00 -99912.14

     hubbard stress (kbar)      0.00      0.00      0.00
                                0.00      0.00      0.00
                                0.00      0.00      0.00

     DFT-D   stress (kbar)      0.00      0.00      0.00
                                0.00      0.00      0.00
                                0.00      0.00      0.00

     XDM     stress (kbar)      0.00      0.00      0.00
                                0.00      0.00      0.00
                                0.00      0.00      0.00

     dft-nl  stress (kbar)      0.00      0.00      0.00
                                0.00      0.00      0.00
                                0.00      0.00      0.00

     TS-vdW  stress (kbar)      0.00      0.00      0.00
                                0.00      0.00      0.00
                                0.00      0.00      0.00

     MDB     stress (kbar)      0.00      0.00      0.00
                                0.00      0.00      0.00
                                0.00      0.00      0.00

     3D-RISM stress (kbar)      0.00      0.00      0.00
                                0.00      0.00      0.00
                                0.00      0.00      0.00


     Writing all to output data dir ./temp_cubic/aiida.save/ :
     XML data file, charge density, pseudopotentials, collected wavefunctions

     init_run     :    429.14s CPU     49.29s WALL (       2 calls)
     electrons    :  31524.57s CPU   4092.05s WALL (       6 calls)
     update_pot   :     14.34s CPU      0.80s WALL (       4 calls)
     forces       :    515.70s CPU     92.04s WALL (       6 calls)
     stress       :   1416.76s CPU     91.32s WALL (       6 calls)

     Called by init_run:
     wfcinit      :    416.77s CPU     47.22s WALL (       2 calls)
     wfcinit:atom :      2.77s CPU      0.16s WALL (      40 calls)
     wfcinit:wfcr :    397.97s CPU     45.44s WALL (      40 calls)
     potinit      :      5.13s CPU      0.33s WALL (       2 calls)
     hinit0       :      2.81s CPU      0.55s WALL (       2 calls)

     Called by electrons:
     c_bands      :  25834.41s CPU   3663.18s WALL (      52 calls)
     sum_band     :   5330.04s CPU    387.90s WALL (      52 calls)
     v_of_rho     :     52.52s CPU      3.49s WALL (      55 calls)
     v_h          :      7.80s CPU      0.57s WALL (      55 calls)
     v_xc         :     54.24s CPU      3.59s WALL (      67 calls)
     newd         :    101.71s CPU     30.98s WALL (      55 calls)
     PAW_pot      :    218.19s CPU      9.16s WALL (      59 calls)
     mix_rho      :     14.89s CPU      0.76s WALL (      52 calls)

     Called by c_bands:
     init_us_2    :    223.56s CPU     19.52s WALL (    2440 calls)
     cegterg      :  25636.18s CPU   3635.75s WALL (    1040 calls)

     Called by sum_band:
     sum_band:wei :      0.04s CPU      0.04s WALL (      52 calls)
     sum_band:loo :   5277.48s CPU    357.60s WALL (      52 calls)
     sum_band:buf :     29.06s CPU      1.67s WALL (    1040 calls)
     sum_band:ini :     88.29s CPU      4.39s WALL (    1040 calls)
     sum_band:cal :    549.35s CPU    160.20s WALL (    1120 calls)
     sum_band:bec :    258.41s CPU     19.87s WALL (    1120 calls)
     addusdens    :     47.41s CPU     28.97s WALL (      52 calls)
                                        0.00s GPU  (      52 calls)
     addusd:skk   :      3.62s CPU      0.35s WALL (     104 calls)
                                        0.00s GPU  (     104 calls)

     Called by *egterg:
     cdiaghg      :    119.72s CPU     75.67s WALL (    3585 calls)
     cegterg:over :    459.69s CPU    417.94s WALL (    2685 calls)
     cegterg:upda :   1086.91s CPU    272.77s WALL (    2685 calls)
     cegterg:last :    761.41s CPU    761.53s WALL (    2194 calls)
     h_psi        :  21765.05s CPU   1561.89s WALL (    3765 calls)
     s_psi        :   1366.95s CPU    379.63s WALL (    3765 calls)
     g_psi        :     53.12s CPU      7.24s WALL (    2685 calls)

     Called by h_psi:
     h_psi:calbec :   1588.91s CPU    364.15s WALL (    3765 calls)
     vloc_psi     :  19694.78s CPU    827.53s WALL (    3765 calls)
     add_vuspsi   :    391.65s CPU    363.25s WALL (    3765 calls)

     General routines
     calbec       :   2407.81s CPU    611.00s WALL (    5485 calls)
     fft          :     66.16s CPU      3.58s WALL (     860 calls)
     ffts         :      2.07s CPU      0.16s WALL (     107 calls)
     fftw         :  14232.09s CPU    597.93s WALL (  732380 calls)
     interpolate  :     11.06s CPU      0.43s WALL (      55 calls)

     Parallel routines

     PAW routines
     PAW_pot      :    218.19s CPU      9.16s WALL (      59 calls)
     PAW_symme    :      0.02s CPU      0.02s WALL (     111 calls)

     PWSCF        :      9h26m CPU      1h12m WALL


   This run was terminated on:  22:15:49   8Jun2024            

=------------------------------------------------------------------------------=
   JOB DONE.
=------------------------------------------------------------------------------=
