
     Program PWSCF v.7.3.1 starts on  7Jun2024 at 21:25:56 

     This program is part of the open-source Quantum ESPRESSO suite
     for quantum simulation of materials; please cite
         "P. Giannozzi et al., J. Phys.:Condens. Matter 21 395502 (2009);
         "P. Giannozzi et al., J. Phys.:Condens. Matter 29 465901 (2017);
         "P. Giannozzi et al., J. Chem. Phys. 152 154105 (2020);
          URL http://www.quantum-espresso.org", 
     in publications or presentations arising from this work. More details at
     http://www.quantum-espresso.org/quote

     Parallel version (MPI & OpenMP), running on      24 processor cores
     Number of MPI processes:                 1
     Threads/MPI process:                    24

     MPI processes distributed on     1 nodes
     4331 MiB available memory on the printing compute node when the environment starts

     Waiting for input...
     Reading input from standard input

     Current dimensions of program PWSCF are:
     Max number of different atomic species (ntypx) = 10
     Max number of k-points (npk) =  40000
     Max angular momentum in pseudopotentials (lmaxx) =  4
     file O.pbe-n-kjpaw_psl.0.1.UPF: wavefunction(s)  2P renormalized
     Message from routine setup:
     using ibrav=0 with symmetry is DISCOURAGED, use correct ibrav instead

     Subspace diagonalization in iterative solution of the eigenvalue problem:
     a serial algorithm will be used


     G-vector sticks info
     --------------------
     sticks:   dense  smooth     PW     G-vecs:    dense   smooth      PW
     Sum         757     373    129                15659     5497    1045

     Using Slab Decomposition



     bravais-lattice index     =            0
     lattice parameter (alat)  =       4.8834  a.u.
     unit-cell volume          =     116.4570 (a.u.)^3
     number of atoms/cell      =            2
     number of atomic types    =            2
     number of electrons       =        26.00
     number of Kohn-Sham states=           17
     kinetic-energy cutoff     =      50.0000  Ry
     charge density cutoff     =     400.0000  Ry
     scf convergence threshold =      1.0E-08
     mixing beta               =       0.4000
     number of iterations used =            8  plain     mixing
     Exchange-correlation= SLA  PW   PBE  PBE
                           (   1   4   3   4   0   0   0)

     celldm(1)=   4.883396  celldm(2)=   0.000000  celldm(3)=   0.000000
     celldm(4)=   0.000000  celldm(5)=   0.000000  celldm(6)=   0.000000

     crystal axes: (cart. coord. in units of alat)
               a(1) = (   1.000000   0.000000   0.000000 )  
               a(2) = (   0.000000   1.000000   0.000000 )  
               a(3) = (   0.000000   0.000000   1.000000 )  

     reciprocal axes: (cart. coord. in units 2 pi/alat)
               b(1) = (  1.000000  0.000000  0.000000 )  
               b(2) = (  0.000000  1.000000  0.000000 )  
               b(3) = (  0.000000  0.000000  1.000000 )  


     PseudoPot. # 1 for O  read from file:
     ../SSSP_1.3.0_PBE_efficiency/O.pbe-n-kjpaw_psl.0.1.UPF
     MD5 check sum: 0234752ac141de4415c5fc33072bef88
     Pseudo is Projector augmented-wave + core cor, Zval =  6.0
     Generated using "atomic" code by A. Dal Corso  v.5.0.99 svn rev. 10869
     Shape of augmentation charge: BESSEL
     Using radial grid of 1095 points,  4 beta functions with: 
                l(1) =   0
                l(2) =   0
                l(3) =   1
                l(4) =   1
     Q(r) pseudized with 0 coefficients 


     PseudoPot. # 2 for Zn read from file:
     ../SSSP_1.3.0_PBE_efficiency/Zn_pbe_v1.uspp.F.UPF
     MD5 check sum: df62231357ef9e81f77b2b3087fa5675
     Pseudo is Ultrasoft, Zval = 20.0
     Generated by new atomic code, or converted to UPF format
     Using radial grid of  943 points,  6 beta functions with: 
                l(1) =   0
                l(2) =   0
                l(3) =   1
                l(4) =   1
                l(5) =   2
                l(6) =   2
     Q(r) pseudized with  8 coefficients,  rinner =    1.100   1.100   1.100
                                                       1.100   1.100

     atomic species   valence    mass     pseudopotential
     O                 6.00    15.99940     O ( 1.00)
     Zn               20.00    65.38000     Zn( 1.00)

     48 Sym. Ops., with inversion, found


                                    s                        frac. trans.

      isym =  1     identity                                     

 cryst.   s( 1) = (     1          0          0      )
                  (     0          1          0      )
                  (     0          0          1      )

 cart.    s( 1) = (  1.0000000  0.0000000  0.0000000 )
                  (  0.0000000  1.0000000  0.0000000 )
                  (  0.0000000  0.0000000  1.0000000 )


      isym =  2     180 deg rotation - cart. axis [0,0,1]        

 cryst.   s( 2) = (    -1          0          0      )
                  (     0         -1          0      )
                  (     0          0          1      )

 cart.    s( 2) = ( -1.0000000  0.0000000  0.0000000 )
                  (  0.0000000 -1.0000000  0.0000000 )
                  (  0.0000000  0.0000000  1.0000000 )


      isym =  3     180 deg rotation - cart. axis [0,1,0]        

 cryst.   s( 3) = (    -1          0          0      )
                  (     0          1          0      )
                  (     0          0         -1      )

 cart.    s( 3) = ( -1.0000000  0.0000000  0.0000000 )
                  (  0.0000000  1.0000000  0.0000000 )
                  (  0.0000000  0.0000000 -1.0000000 )


      isym =  4     180 deg rotation - cart. axis [1,0,0]        

 cryst.   s( 4) = (     1          0          0      )
                  (     0         -1          0      )
                  (     0          0         -1      )

 cart.    s( 4) = (  1.0000000  0.0000000  0.0000000 )
                  (  0.0000000 -1.0000000  0.0000000 )
                  (  0.0000000  0.0000000 -1.0000000 )


      isym =  5     180 deg rotation - cart. axis [1,1,0]        

 cryst.   s( 5) = (     0          1          0      )
                  (     1          0          0      )
                  (     0          0         -1      )

 cart.    s( 5) = (  0.0000000  1.0000000  0.0000000 )
                  (  1.0000000  0.0000000  0.0000000 )
                  (  0.0000000  0.0000000 -1.0000000 )


      isym =  6     180 deg rotation - cart. axis [1,-1,0]       

 cryst.   s( 6) = (     0         -1          0      )
                  (    -1          0          0      )
                  (     0          0         -1      )

 cart.    s( 6) = (  0.0000000 -1.0000000  0.0000000 )
                  ( -1.0000000  0.0000000  0.0000000 )
                  (  0.0000000  0.0000000 -1.0000000 )


      isym =  7      90 deg rotation - cart. axis [0,0,-1]       

 cryst.   s( 7) = (     0         -1          0      )
                  (     1          0          0      )
                  (     0          0          1      )

 cart.    s( 7) = (  0.0000000  1.0000000  0.0000000 )
                  ( -1.0000000  0.0000000  0.0000000 )
                  (  0.0000000  0.0000000  1.0000000 )


      isym =  8      90 deg rotation - cart. axis [0,0,1]        

 cryst.   s( 8) = (     0          1          0      )
                  (    -1          0          0      )
                  (     0          0          1      )

 cart.    s( 8) = (  0.0000000 -1.0000000  0.0000000 )
                  (  1.0000000  0.0000000  0.0000000 )
                  (  0.0000000  0.0000000  1.0000000 )


      isym =  9     180 deg rotation - cart. axis [1,0,1]        

 cryst.   s( 9) = (     0          0          1      )
                  (     0         -1          0      )
                  (     1          0          0      )

 cart.    s( 9) = (  0.0000000  0.0000000  1.0000000 )
                  (  0.0000000 -1.0000000  0.0000000 )
                  (  1.0000000  0.0000000  0.0000000 )


      isym = 10     180 deg rotation - cart. axis [-1,0,1]       

 cryst.   s(10) = (     0          0         -1      )
                  (     0         -1          0      )
                  (    -1          0          0      )

 cart.    s(10) = (  0.0000000  0.0000000 -1.0000000 )
                  (  0.0000000 -1.0000000  0.0000000 )
                  ( -1.0000000  0.0000000  0.0000000 )


      isym = 11      90 deg rotation - cart. axis [0,1,0]        

 cryst.   s(11) = (     0          0         -1      )
                  (     0          1          0      )
                  (     1          0          0      )

 cart.    s(11) = (  0.0000000  0.0000000  1.0000000 )
                  (  0.0000000  1.0000000  0.0000000 )
                  ( -1.0000000  0.0000000  0.0000000 )


      isym = 12      90 deg rotation - cart. axis [0,-1,0]       

 cryst.   s(12) = (     0          0          1      )
                  (     0          1          0      )
                  (    -1          0          0      )

 cart.    s(12) = (  0.0000000  0.0000000 -1.0000000 )
                  (  0.0000000  1.0000000  0.0000000 )
                  (  1.0000000  0.0000000  0.0000000 )


      isym = 13     180 deg rotation - cart. axis [0,1,1]        

 cryst.   s(13) = (    -1          0          0      )
                  (     0          0          1      )
                  (     0          1          0      )

 cart.    s(13) = ( -1.0000000  0.0000000  0.0000000 )
                  (  0.0000000  0.0000000  1.0000000 )
                  (  0.0000000  1.0000000  0.0000000 )


      isym = 14     180 deg rotation - cart. axis [0,1,-1]       

 cryst.   s(14) = (    -1          0          0      )
                  (     0          0         -1      )
                  (     0         -1          0      )

 cart.    s(14) = ( -1.0000000  0.0000000  0.0000000 )
                  (  0.0000000  0.0000000 -1.0000000 )
                  (  0.0000000 -1.0000000  0.0000000 )


      isym = 15      90 deg rotation - cart. axis [-1,0,0]       

 cryst.   s(15) = (     1          0          0      )
                  (     0          0         -1      )
                  (     0          1          0      )

 cart.    s(15) = (  1.0000000  0.0000000  0.0000000 )
                  (  0.0000000  0.0000000  1.0000000 )
                  (  0.0000000 -1.0000000  0.0000000 )


      isym = 16      90 deg rotation - cart. axis [1,0,0]        

 cryst.   s(16) = (     1          0          0      )
                  (     0          0          1      )
                  (     0         -1          0      )

 cart.    s(16) = (  1.0000000  0.0000000  0.0000000 )
                  (  0.0000000  0.0000000 -1.0000000 )
                  (  0.0000000  1.0000000  0.0000000 )


      isym = 17     120 deg rotation - cart. axis [-1,-1,-1]     

 cryst.   s(17) = (     0          0          1      )
                  (     1          0          0      )
                  (     0          1          0      )

 cart.    s(17) = (  0.0000000  1.0000000  0.0000000 )
                  (  0.0000000  0.0000000  1.0000000 )
                  (  1.0000000  0.0000000  0.0000000 )


      isym = 18     120 deg rotation - cart. axis [-1,1,1]       

 cryst.   s(18) = (     0          0         -1      )
                  (    -1          0          0      )
                  (     0          1          0      )

 cart.    s(18) = (  0.0000000 -1.0000000  0.0000000 )
                  (  0.0000000  0.0000000  1.0000000 )
                  ( -1.0000000  0.0000000  0.0000000 )


      isym = 19     120 deg rotation - cart. axis [1,1,-1]       

 cryst.   s(19) = (     0          0         -1      )
                  (     1          0          0      )
                  (     0         -1          0      )

 cart.    s(19) = (  0.0000000  1.0000000  0.0000000 )
                  (  0.0000000  0.0000000 -1.0000000 )
                  ( -1.0000000  0.0000000  0.0000000 )


      isym = 20     120 deg rotation - cart. axis [1,-1,1]       

 cryst.   s(20) = (     0          0          1      )
                  (    -1          0          0      )
                  (     0         -1          0      )

 cart.    s(20) = (  0.0000000 -1.0000000  0.0000000 )
                  (  0.0000000  0.0000000 -1.0000000 )
                  (  1.0000000  0.0000000  0.0000000 )


      isym = 21     120 deg rotation - cart. axis [1,1,1]        

 cryst.   s(21) = (     0          1          0      )
                  (     0          0          1      )
                  (     1          0          0      )

 cart.    s(21) = (  0.0000000  0.0000000  1.0000000 )
                  (  1.0000000  0.0000000  0.0000000 )
                  (  0.0000000  1.0000000  0.0000000 )


      isym = 22     120 deg rotation - cart. axis [-1,1,-1]      

 cryst.   s(22) = (     0         -1          0      )
                  (     0          0         -1      )
                  (     1          0          0      )

 cart.    s(22) = (  0.0000000  0.0000000  1.0000000 )
                  ( -1.0000000  0.0000000  0.0000000 )
                  (  0.0000000 -1.0000000  0.0000000 )


      isym = 23     120 deg rotation - cart. axis [1,-1,-1]      

 cryst.   s(23) = (     0         -1          0      )
                  (     0          0          1      )
                  (    -1          0          0      )

 cart.    s(23) = (  0.0000000  0.0000000 -1.0000000 )
                  ( -1.0000000  0.0000000  0.0000000 )
                  (  0.0000000  1.0000000  0.0000000 )


      isym = 24     120 deg rotation - cart. axis [-1,-1,1]      

 cryst.   s(24) = (     0          1          0      )
                  (     0          0         -1      )
                  (    -1          0          0      )

 cart.    s(24) = (  0.0000000  0.0000000 -1.0000000 )
                  (  1.0000000  0.0000000  0.0000000 )
                  (  0.0000000 -1.0000000  0.0000000 )


      isym = 25     inversion                                    

 cryst.   s(25) = (    -1          0          0      )
                  (     0         -1          0      )
                  (     0          0         -1      )

 cart.    s(25) = ( -1.0000000  0.0000000  0.0000000 )
                  (  0.0000000 -1.0000000  0.0000000 )
                  (  0.0000000  0.0000000 -1.0000000 )


      isym = 26     inv. 180 deg rotation - cart. axis [0,0,1]   

 cryst.   s(26) = (     1          0          0      )
                  (     0          1          0      )
                  (     0          0         -1      )

 cart.    s(26) = (  1.0000000  0.0000000  0.0000000 )
                  (  0.0000000  1.0000000  0.0000000 )
                  (  0.0000000  0.0000000 -1.0000000 )


      isym = 27     inv. 180 deg rotation - cart. axis [0,1,0]   

 cryst.   s(27) = (     1          0          0      )
                  (     0         -1          0      )
                  (     0          0          1      )

 cart.    s(27) = (  1.0000000  0.0000000  0.0000000 )
                  (  0.0000000 -1.0000000  0.0000000 )
                  (  0.0000000  0.0000000  1.0000000 )


      isym = 28     inv. 180 deg rotation - cart. axis [1,0,0]   

 cryst.   s(28) = (    -1          0          0      )
                  (     0          1          0      )
                  (     0          0          1      )

 cart.    s(28) = ( -1.0000000  0.0000000  0.0000000 )
                  (  0.0000000  1.0000000  0.0000000 )
                  (  0.0000000  0.0000000  1.0000000 )


      isym = 29     inv. 180 deg rotation - cart. axis [1,1,0]   

 cryst.   s(29) = (     0         -1          0      )
                  (    -1          0          0      )
                  (     0          0          1      )

 cart.    s(29) = (  0.0000000 -1.0000000  0.0000000 )
                  ( -1.0000000  0.0000000  0.0000000 )
                  (  0.0000000  0.0000000  1.0000000 )


      isym = 30     inv. 180 deg rotation - cart. axis [1,-1,0]  

 cryst.   s(30) = (     0          1          0      )
                  (     1          0          0      )
                  (     0          0          1      )

 cart.    s(30) = (  0.0000000  1.0000000  0.0000000 )
                  (  1.0000000  0.0000000  0.0000000 )
                  (  0.0000000  0.0000000  1.0000000 )


      isym = 31     inv.  90 deg rotation - cart. axis [0,0,-1]  

 cryst.   s(31) = (     0          1          0      )
                  (    -1          0          0      )
                  (     0          0         -1      )

 cart.    s(31) = (  0.0000000 -1.0000000  0.0000000 )
                  (  1.0000000  0.0000000  0.0000000 )
                  (  0.0000000  0.0000000 -1.0000000 )


      isym = 32     inv.  90 deg rotation - cart. axis [0,0,1]   

 cryst.   s(32) = (     0         -1          0      )
                  (     1          0          0      )
                  (     0          0         -1      )

 cart.    s(32) = (  0.0000000  1.0000000  0.0000000 )
                  ( -1.0000000  0.0000000  0.0000000 )
                  (  0.0000000  0.0000000 -1.0000000 )


      isym = 33     inv. 180 deg rotation - cart. axis [1,0,1]   

 cryst.   s(33) = (     0          0         -1      )
                  (     0          1          0      )
                  (    -1          0          0      )

 cart.    s(33) = (  0.0000000  0.0000000 -1.0000000 )
                  (  0.0000000  1.0000000  0.0000000 )
                  ( -1.0000000  0.0000000  0.0000000 )


      isym = 34     inv. 180 deg rotation - cart. axis [-1,0,1]  

 cryst.   s(34) = (     0          0          1      )
                  (     0          1          0      )
                  (     1          0          0      )

 cart.    s(34) = (  0.0000000  0.0000000  1.0000000 )
                  (  0.0000000  1.0000000  0.0000000 )
                  (  1.0000000  0.0000000  0.0000000 )


      isym = 35     inv.  90 deg rotation - cart. axis [0,1,0]   

 cryst.   s(35) = (     0          0          1      )
                  (     0         -1          0      )
                  (    -1          0          0      )

 cart.    s(35) = (  0.0000000  0.0000000 -1.0000000 )
                  (  0.0000000 -1.0000000  0.0000000 )
                  (  1.0000000  0.0000000  0.0000000 )


      isym = 36     inv.  90 deg rotation - cart. axis [0,-1,0]  

 cryst.   s(36) = (     0          0         -1      )
                  (     0         -1          0      )
                  (     1          0          0      )

 cart.    s(36) = (  0.0000000  0.0000000  1.0000000 )
                  (  0.0000000 -1.0000000  0.0000000 )
                  ( -1.0000000  0.0000000  0.0000000 )


      isym = 37     inv. 180 deg rotation - cart. axis [0,1,1]   

 cryst.   s(37) = (     1          0          0      )
                  (     0          0         -1      )
                  (     0         -1          0      )

 cart.    s(37) = (  1.0000000  0.0000000  0.0000000 )
                  (  0.0000000  0.0000000 -1.0000000 )
                  (  0.0000000 -1.0000000  0.0000000 )


      isym = 38     inv. 180 deg rotation - cart. axis [0,1,-1]  

 cryst.   s(38) = (     1          0          0      )
                  (     0          0          1      )
                  (     0          1          0      )

 cart.    s(38) = (  1.0000000  0.0000000  0.0000000 )
                  (  0.0000000  0.0000000  1.0000000 )
                  (  0.0000000  1.0000000  0.0000000 )


      isym = 39     inv.  90 deg rotation - cart. axis [-1,0,0]  

 cryst.   s(39) = (    -1          0          0      )
                  (     0          0          1      )
                  (     0         -1          0      )

 cart.    s(39) = ( -1.0000000  0.0000000  0.0000000 )
                  (  0.0000000  0.0000000 -1.0000000 )
                  (  0.0000000  1.0000000  0.0000000 )


      isym = 40     inv.  90 deg rotation - cart. axis [1,0,0]   

 cryst.   s(40) = (    -1          0          0      )
                  (     0          0         -1      )
                  (     0          1          0      )

 cart.    s(40) = ( -1.0000000  0.0000000  0.0000000 )
                  (  0.0000000  0.0000000  1.0000000 )
                  (  0.0000000 -1.0000000  0.0000000 )


      isym = 41     inv. 120 deg rotation - cart. axis [-1,-1,-1]

 cryst.   s(41) = (     0          0         -1      )
                  (    -1          0          0      )
                  (     0         -1          0      )

 cart.    s(41) = (  0.0000000 -1.0000000  0.0000000 )
                  (  0.0000000  0.0000000 -1.0000000 )
                  ( -1.0000000  0.0000000  0.0000000 )


      isym = 42     inv. 120 deg rotation - cart. axis [-1,1,1]  

 cryst.   s(42) = (     0          0          1      )
                  (     1          0          0      )
                  (     0         -1          0      )

 cart.    s(42) = (  0.0000000  1.0000000  0.0000000 )
                  (  0.0000000  0.0000000 -1.0000000 )
                  (  1.0000000  0.0000000  0.0000000 )


      isym = 43     inv. 120 deg rotation - cart. axis [1,1,-1]  

 cryst.   s(43) = (     0          0          1      )
                  (    -1          0          0      )
                  (     0          1          0      )

 cart.    s(43) = (  0.0000000 -1.0000000  0.0000000 )
                  (  0.0000000  0.0000000  1.0000000 )
                  (  1.0000000  0.0000000  0.0000000 )


      isym = 44     inv. 120 deg rotation - cart. axis [1,-1,1]  

 cryst.   s(44) = (     0          0         -1      )
                  (     1          0          0      )
                  (     0          1          0      )

 cart.    s(44) = (  0.0000000  1.0000000  0.0000000 )
                  (  0.0000000  0.0000000  1.0000000 )
                  ( -1.0000000  0.0000000  0.0000000 )


      isym = 45     inv. 120 deg rotation - cart. axis [1,1,1]   

 cryst.   s(45) = (     0         -1          0      )
                  (     0          0         -1      )
                  (    -1          0          0      )

 cart.    s(45) = (  0.0000000  0.0000000 -1.0000000 )
                  ( -1.0000000  0.0000000  0.0000000 )
                  (  0.0000000 -1.0000000  0.0000000 )


      isym = 46     inv. 120 deg rotation - cart. axis [-1,1,-1] 

 cryst.   s(46) = (     0          1          0      )
                  (     0          0          1      )
                  (    -1          0          0      )

 cart.    s(46) = (  0.0000000  0.0000000 -1.0000000 )
                  (  1.0000000  0.0000000  0.0000000 )
                  (  0.0000000  1.0000000  0.0000000 )


      isym = 47     inv. 120 deg rotation - cart. axis [1,-1,-1] 

 cryst.   s(47) = (     0          1          0      )
                  (     0          0         -1      )
                  (     1          0          0      )

 cart.    s(47) = (  0.0000000  0.0000000  1.0000000 )
                  (  1.0000000  0.0000000  0.0000000 )
                  (  0.0000000 -1.0000000  0.0000000 )


      isym = 48     inv. 120 deg rotation - cart. axis [-1,-1,1] 

 cryst.   s(48) = (     0         -1          0      )
                  (     0          0          1      )
                  (     1          0          0      )

 cart.    s(48) = (  0.0000000  0.0000000  1.0000000 )
                  ( -1.0000000  0.0000000  0.0000000 )
                  (  0.0000000  1.0000000  0.0000000 )


   Cartesian axes

     site n.     atom                  positions (alat units)
         1        Zn     tau(   1) = (   0.0000000   0.0000000   0.0000000  )
         2        O      tau(   2) = (   0.5000000   0.5000000   0.5000000  )

   Crystallographic axes

     site n.     atom                  positions (cryst. coord.)
         1        Zn     tau(   1) = (  0.0000000  0.0000000  0.0000000  )
         2        O      tau(   2) = (  0.5000000  0.5000000  0.5000000  )

     number of k points=    84  Marzari-Vanderbilt smearing, width (Ry)=  0.0147
                       cart. coord. in units 2pi/alat
        k(    1) = (   0.0000000   0.0000000   0.0000000), wk =   0.0011574
        k(    2) = (   0.0000000   0.0000000   0.0833333), wk =   0.0069444
        k(    3) = (   0.0000000   0.0000000   0.1666667), wk =   0.0069444
        k(    4) = (   0.0000000   0.0000000   0.2500000), wk =   0.0069444
        k(    5) = (   0.0000000   0.0000000   0.3333333), wk =   0.0069444
        k(    6) = (   0.0000000   0.0000000   0.4166667), wk =   0.0069444
        k(    7) = (   0.0000000   0.0000000  -0.5000000), wk =   0.0034722
        k(    8) = (   0.0000000   0.0833333   0.0833333), wk =   0.0138889
        k(    9) = (   0.0000000   0.0833333   0.1666667), wk =   0.0277778
        k(   10) = (   0.0000000   0.0833333   0.2500000), wk =   0.0277778
        k(   11) = (   0.0000000   0.0833333   0.3333333), wk =   0.0277778
        k(   12) = (   0.0000000   0.0833333   0.4166667), wk =   0.0277778
        k(   13) = (   0.0000000   0.0833333  -0.5000000), wk =   0.0138889
        k(   14) = (   0.0000000   0.1666667   0.1666667), wk =   0.0138889
        k(   15) = (   0.0000000   0.1666667   0.2500000), wk =   0.0277778
        k(   16) = (   0.0000000   0.1666667   0.3333333), wk =   0.0277778
        k(   17) = (   0.0000000   0.1666667   0.4166667), wk =   0.0277778
        k(   18) = (   0.0000000   0.1666667  -0.5000000), wk =   0.0138889
        k(   19) = (   0.0000000   0.2500000   0.2500000), wk =   0.0138889
        k(   20) = (   0.0000000   0.2500000   0.3333333), wk =   0.0277778
        k(   21) = (   0.0000000   0.2500000   0.4166667), wk =   0.0277778
        k(   22) = (   0.0000000   0.2500000  -0.5000000), wk =   0.0138889
        k(   23) = (   0.0000000   0.3333333   0.3333333), wk =   0.0138889
        k(   24) = (   0.0000000   0.3333333   0.4166667), wk =   0.0277778
        k(   25) = (   0.0000000   0.3333333  -0.5000000), wk =   0.0138889
        k(   26) = (   0.0000000   0.4166667   0.4166667), wk =   0.0138889
        k(   27) = (   0.0000000   0.4166667  -0.5000000), wk =   0.0138889
        k(   28) = (   0.0000000  -0.5000000  -0.5000000), wk =   0.0034722
        k(   29) = (   0.0833333   0.0833333   0.0833333), wk =   0.0092593
        k(   30) = (   0.0833333   0.0833333   0.1666667), wk =   0.0277778
        k(   31) = (   0.0833333   0.0833333   0.2500000), wk =   0.0277778
        k(   32) = (   0.0833333   0.0833333   0.3333333), wk =   0.0277778
        k(   33) = (   0.0833333   0.0833333   0.4166667), wk =   0.0277778
        k(   34) = (   0.0833333   0.0833333  -0.5000000), wk =   0.0138889
        k(   35) = (   0.0833333   0.1666667   0.1666667), wk =   0.0277778
        k(   36) = (   0.0833333   0.1666667   0.2500000), wk =   0.0555556
        k(   37) = (   0.0833333   0.1666667   0.3333333), wk =   0.0555556
        k(   38) = (   0.0833333   0.1666667   0.4166667), wk =   0.0555556
        k(   39) = (   0.0833333   0.1666667  -0.5000000), wk =   0.0277778
        k(   40) = (   0.0833333   0.2500000   0.2500000), wk =   0.0277778
        k(   41) = (   0.0833333   0.2500000   0.3333333), wk =   0.0555556
        k(   42) = (   0.0833333   0.2500000   0.4166667), wk =   0.0555556
        k(   43) = (   0.0833333   0.2500000  -0.5000000), wk =   0.0277778
        k(   44) = (   0.0833333   0.3333333   0.3333333), wk =   0.0277778
        k(   45) = (   0.0833333   0.3333333   0.4166667), wk =   0.0555556
        k(   46) = (   0.0833333   0.3333333  -0.5000000), wk =   0.0277778
        k(   47) = (   0.0833333   0.4166667   0.4166667), wk =   0.0277778
        k(   48) = (   0.0833333   0.4166667  -0.5000000), wk =   0.0277778
        k(   49) = (   0.0833333  -0.5000000  -0.5000000), wk =   0.0069444
        k(   50) = (   0.1666667   0.1666667   0.1666667), wk =   0.0092593
        k(   51) = (   0.1666667   0.1666667   0.2500000), wk =   0.0277778
        k(   52) = (   0.1666667   0.1666667   0.3333333), wk =   0.0277778
        k(   53) = (   0.1666667   0.1666667   0.4166667), wk =   0.0277778
        k(   54) = (   0.1666667   0.1666667  -0.5000000), wk =   0.0138889
        k(   55) = (   0.1666667   0.2500000   0.2500000), wk =   0.0277778
        k(   56) = (   0.1666667   0.2500000   0.3333333), wk =   0.0555556
        k(   57) = (   0.1666667   0.2500000   0.4166667), wk =   0.0555556
        k(   58) = (   0.1666667   0.2500000  -0.5000000), wk =   0.0277778
        k(   59) = (   0.1666667   0.3333333   0.3333333), wk =   0.0277778
        k(   60) = (   0.1666667   0.3333333   0.4166667), wk =   0.0555556
        k(   61) = (   0.1666667   0.3333333  -0.5000000), wk =   0.0277778
        k(   62) = (   0.1666667   0.4166667   0.4166667), wk =   0.0277778
        k(   63) = (   0.1666667   0.4166667  -0.5000000), wk =   0.0277778
        k(   64) = (   0.1666667  -0.5000000  -0.5000000), wk =   0.0069444
        k(   65) = (   0.2500000   0.2500000   0.2500000), wk =   0.0092593
        k(   66) = (   0.2500000   0.2500000   0.3333333), wk =   0.0277778
        k(   67) = (   0.2500000   0.2500000   0.4166667), wk =   0.0277778
        k(   68) = (   0.2500000   0.2500000  -0.5000000), wk =   0.0138889
        k(   69) = (   0.2500000   0.3333333   0.3333333), wk =   0.0277778
        k(   70) = (   0.2500000   0.3333333   0.4166667), wk =   0.0555556
        k(   71) = (   0.2500000   0.3333333  -0.5000000), wk =   0.0277778
        k(   72) = (   0.2500000   0.4166667   0.4166667), wk =   0.0277778
        k(   73) = (   0.2500000   0.4166667  -0.5000000), wk =   0.0277778
        k(   74) = (   0.2500000  -0.5000000  -0.5000000), wk =   0.0069444
        k(   75) = (   0.3333333   0.3333333   0.3333333), wk =   0.0092593
        k(   76) = (   0.3333333   0.3333333   0.4166667), wk =   0.0277778
        k(   77) = (   0.3333333   0.3333333  -0.5000000), wk =   0.0138889
        k(   78) = (   0.3333333   0.4166667   0.4166667), wk =   0.0277778
        k(   79) = (   0.3333333   0.4166667  -0.5000000), wk =   0.0277778
        k(   80) = (   0.3333333  -0.5000000  -0.5000000), wk =   0.0069444
        k(   81) = (   0.4166667   0.4166667   0.4166667), wk =   0.0092593
        k(   82) = (   0.4166667   0.4166667  -0.5000000), wk =   0.0138889
        k(   83) = (   0.4166667  -0.5000000  -0.5000000), wk =   0.0069444
        k(   84) = (  -0.5000000  -0.5000000  -0.5000000), wk =   0.0011574

                       cryst. coord.
        k(    1) = (   0.0000000   0.0000000   0.0000000), wk =   0.0011574
        k(    2) = (   0.0000000   0.0000000   0.0833333), wk =   0.0069444
        k(    3) = (   0.0000000   0.0000000   0.1666667), wk =   0.0069444
        k(    4) = (   0.0000000   0.0000000   0.2500000), wk =   0.0069444
        k(    5) = (   0.0000000   0.0000000   0.3333333), wk =   0.0069444
        k(    6) = (   0.0000000   0.0000000   0.4166667), wk =   0.0069444
        k(    7) = (   0.0000000   0.0000000  -0.5000000), wk =   0.0034722
        k(    8) = (   0.0000000   0.0833333   0.0833333), wk =   0.0138889
        k(    9) = (   0.0000000   0.0833333   0.1666667), wk =   0.0277778
        k(   10) = (   0.0000000   0.0833333   0.2500000), wk =   0.0277778
        k(   11) = (   0.0000000   0.0833333   0.3333333), wk =   0.0277778
        k(   12) = (   0.0000000   0.0833333   0.4166667), wk =   0.0277778
        k(   13) = (   0.0000000   0.0833333  -0.5000000), wk =   0.0138889
        k(   14) = (   0.0000000   0.1666667   0.1666667), wk =   0.0138889
        k(   15) = (   0.0000000   0.1666667   0.2500000), wk =   0.0277778
        k(   16) = (   0.0000000   0.1666667   0.3333333), wk =   0.0277778
        k(   17) = (   0.0000000   0.1666667   0.4166667), wk =   0.0277778
        k(   18) = (   0.0000000   0.1666667  -0.5000000), wk =   0.0138889
        k(   19) = (   0.0000000   0.2500000   0.2500000), wk =   0.0138889
        k(   20) = (   0.0000000   0.2500000   0.3333333), wk =   0.0277778
        k(   21) = (   0.0000000   0.2500000   0.4166667), wk =   0.0277778
        k(   22) = (   0.0000000   0.2500000  -0.5000000), wk =   0.0138889
        k(   23) = (   0.0000000   0.3333333   0.3333333), wk =   0.0138889
        k(   24) = (   0.0000000   0.3333333   0.4166667), wk =   0.0277778
        k(   25) = (   0.0000000   0.3333333  -0.5000000), wk =   0.0138889
        k(   26) = (   0.0000000   0.4166667   0.4166667), wk =   0.0138889
        k(   27) = (   0.0000000   0.4166667  -0.5000000), wk =   0.0138889
        k(   28) = (   0.0000000  -0.5000000  -0.5000000), wk =   0.0034722
        k(   29) = (   0.0833333   0.0833333   0.0833333), wk =   0.0092593
        k(   30) = (   0.0833333   0.0833333   0.1666667), wk =   0.0277778
        k(   31) = (   0.0833333   0.0833333   0.2500000), wk =   0.0277778
        k(   32) = (   0.0833333   0.0833333   0.3333333), wk =   0.0277778
        k(   33) = (   0.0833333   0.0833333   0.4166667), wk =   0.0277778
        k(   34) = (   0.0833333   0.0833333  -0.5000000), wk =   0.0138889
        k(   35) = (   0.0833333   0.1666667   0.1666667), wk =   0.0277778
        k(   36) = (   0.0833333   0.1666667   0.2500000), wk =   0.0555556
        k(   37) = (   0.0833333   0.1666667   0.3333333), wk =   0.0555556
        k(   38) = (   0.0833333   0.1666667   0.4166667), wk =   0.0555556
        k(   39) = (   0.0833333   0.1666667  -0.5000000), wk =   0.0277778
        k(   40) = (   0.0833333   0.2500000   0.2500000), wk =   0.0277778
        k(   41) = (   0.0833333   0.2500000   0.3333333), wk =   0.0555556
        k(   42) = (   0.0833333   0.2500000   0.4166667), wk =   0.0555556
        k(   43) = (   0.0833333   0.2500000  -0.5000000), wk =   0.0277778
        k(   44) = (   0.0833333   0.3333333   0.3333333), wk =   0.0277778
        k(   45) = (   0.0833333   0.3333333   0.4166667), wk =   0.0555556
        k(   46) = (   0.0833333   0.3333333  -0.5000000), wk =   0.0277778
        k(   47) = (   0.0833333   0.4166667   0.4166667), wk =   0.0277778
        k(   48) = (   0.0833333   0.4166667  -0.5000000), wk =   0.0277778
        k(   49) = (   0.0833333  -0.5000000  -0.5000000), wk =   0.0069444
        k(   50) = (   0.1666667   0.1666667   0.1666667), wk =   0.0092593
        k(   51) = (   0.1666667   0.1666667   0.2500000), wk =   0.0277778
        k(   52) = (   0.1666667   0.1666667   0.3333333), wk =   0.0277778
        k(   53) = (   0.1666667   0.1666667   0.4166667), wk =   0.0277778
        k(   54) = (   0.1666667   0.1666667  -0.5000000), wk =   0.0138889
        k(   55) = (   0.1666667   0.2500000   0.2500000), wk =   0.0277778
        k(   56) = (   0.1666667   0.2500000   0.3333333), wk =   0.0555556
        k(   57) = (   0.1666667   0.2500000   0.4166667), wk =   0.0555556
        k(   58) = (   0.1666667   0.2500000  -0.5000000), wk =   0.0277778
        k(   59) = (   0.1666667   0.3333333   0.3333333), wk =   0.0277778
        k(   60) = (   0.1666667   0.3333333   0.4166667), wk =   0.0555556
        k(   61) = (   0.1666667   0.3333333  -0.5000000), wk =   0.0277778
        k(   62) = (   0.1666667   0.4166667   0.4166667), wk =   0.0277778
        k(   63) = (   0.1666667   0.4166667  -0.5000000), wk =   0.0277778
        k(   64) = (   0.1666667  -0.5000000  -0.5000000), wk =   0.0069444
        k(   65) = (   0.2500000   0.2500000   0.2500000), wk =   0.0092593
        k(   66) = (   0.2500000   0.2500000   0.3333333), wk =   0.0277778
        k(   67) = (   0.2500000   0.2500000   0.4166667), wk =   0.0277778
        k(   68) = (   0.2500000   0.2500000  -0.5000000), wk =   0.0138889
        k(   69) = (   0.2500000   0.3333333   0.3333333), wk =   0.0277778
        k(   70) = (   0.2500000   0.3333333   0.4166667), wk =   0.0555556
        k(   71) = (   0.2500000   0.3333333  -0.5000000), wk =   0.0277778
        k(   72) = (   0.2500000   0.4166667   0.4166667), wk =   0.0277778
        k(   73) = (   0.2500000   0.4166667  -0.5000000), wk =   0.0277778
        k(   74) = (   0.2500000  -0.5000000  -0.5000000), wk =   0.0069444
        k(   75) = (   0.3333333   0.3333333   0.3333333), wk =   0.0092593
        k(   76) = (   0.3333333   0.3333333   0.4166667), wk =   0.0277778
        k(   77) = (   0.3333333   0.3333333  -0.5000000), wk =   0.0138889
        k(   78) = (   0.3333333   0.4166667   0.4166667), wk =   0.0277778
        k(   79) = (   0.3333333   0.4166667  -0.5000000), wk =   0.0277778
        k(   80) = (   0.3333333  -0.5000000  -0.5000000), wk =   0.0069444
        k(   81) = (   0.4166667   0.4166667   0.4166667), wk =   0.0092593
        k(   82) = (   0.4166667   0.4166667  -0.5000000), wk =   0.0138889
        k(   83) = (   0.4166667  -0.5000000  -0.5000000), wk =   0.0069444
        k(   84) = (  -0.5000000  -0.5000000  -0.5000000), wk =   0.0011574

     Dense  grid:    15659 G-vectors     FFT dimensions: (  32,  32,  32)

     Smooth grid:     5497 G-vectors     FFT dimensions: (  24,  24,  24)

     Dynamical RAM for                 wfc:       0.18 MB

     Dynamical RAM for     wfc (w. buffer):      15.32 MB

     Dynamical RAM for           str. fact:       0.48 MB

     Dynamical RAM for           local pot:       0.00 MB

     Dynamical RAM for          nlocal pot:       0.28 MB

     Dynamical RAM for                qrad:       3.21 MB

     Dynamical RAM for          rho,v,vnew:       1.47 MB

     Dynamical RAM for               rhoin:       0.49 MB

     Dynamical RAM for            rho*nmix:       3.82 MB

     Dynamical RAM for           G-vectors:       0.94 MB

     Dynamical RAM for          h,s,v(r/c):       0.05 MB

     Dynamical RAM for          <psi|beta>:       0.01 MB

     Dynamical RAM for                 psi:       0.36 MB

     Dynamical RAM for                hpsi:       0.36 MB

     Dynamical RAM for                spsi:       0.36 MB

     Dynamical RAM for      wfcinit/wfcrot:       0.37 MB

     Dynamical RAM for           addusdens:      44.68 MB

     Dynamical RAM for          addusforce:      44.80 MB

     Dynamical RAM for         addusstress:      48.03 MB

     Estimated static dynamical RAM per process >      24.15 MB

     Estimated max dynamical RAM per process >      76.00 MB

     Check: negative core charge=   -0.000003

     Initial potential from superposition of free atoms

     starting charge      25.9999, renormalised to      26.0000
     Starting wfcs are   17 randomized atomic wfcs
     Checking if some PAW data can be deallocated... 

     total cpu time spent up to now is        4.9 secs

     Self-consistent Calculation

     iteration #  1     ecut=    50.00 Ry     beta= 0.40
     Davidson diagonalization with overlap

---- Real-time Memory Report at c_bands before calling an iterative solver
            87 MiB given to the printing process from OS
             0 MiB allocation reported by mallinfo(arena+hblkhd)
          4306 MiB available memory on the node where the printing process lives
------------------
     ethr =  1.00E-02,  avg # of iterations =  3.0

     total cpu time spent up to now is       29.3 secs

     total energy              =    -503.04306846 Ry
     estimated scf accuracy    <       0.43861958 Ry

     iteration #  2     ecut=    50.00 Ry     beta= 0.40
     Davidson diagonalization with overlap

---- Real-time Memory Report at c_bands before calling an iterative solver
           118 MiB given to the printing process from OS
             0 MiB allocation reported by mallinfo(arena+hblkhd)
          4366 MiB available memory on the node where the printing process lives
------------------
     ethr =  1.69E-03,  avg # of iterations =  2.1

     total cpu time spent up to now is       41.0 secs

     WARNING: integrated charge=    26.00138280, expected=    26.00000000

     total energy              =    -503.15486116 Ry
     estimated scf accuracy    <       0.05462525 Ry

     iteration #  3     ecut=    50.00 Ry     beta= 0.40
     Davidson diagonalization with overlap

---- Real-time Memory Report at c_bands before calling an iterative solver
           118 MiB given to the printing process from OS
             0 MiB allocation reported by mallinfo(arena+hblkhd)
          4308 MiB available memory on the node where the printing process lives
------------------
     ethr =  2.10E-04,  avg # of iterations =  2.3

     total cpu time spent up to now is       64.1 secs

     WARNING: integrated charge=    26.00148030, expected=    26.00000000

     total energy              =    -503.16623390 Ry
     estimated scf accuracy    <       0.00428049 Ry

     iteration #  4     ecut=    50.00 Ry     beta= 0.40
     Davidson diagonalization with overlap

---- Real-time Memory Report at c_bands before calling an iterative solver
           119 MiB given to the printing process from OS
             0 MiB allocation reported by mallinfo(arena+hblkhd)
          4147 MiB available memory on the node where the printing process lives
------------------
     ethr =  1.65E-05,  avg # of iterations =  1.4

     total cpu time spent up to now is       75.0 secs

     WARNING: integrated charge=    26.00160194, expected=    26.00000000

     total energy              =    -503.16604209 Ry
     estimated scf accuracy    <       0.00083731 Ry

     iteration #  5     ecut=    50.00 Ry     beta= 0.40
     Davidson diagonalization with overlap

---- Real-time Memory Report at c_bands before calling an iterative solver
           119 MiB given to the printing process from OS
             0 MiB allocation reported by mallinfo(arena+hblkhd)
          4069 MiB available memory on the node where the printing process lives
------------------
     ethr =  3.22E-06,  avg # of iterations =  2.1

     total cpu time spent up to now is      101.1 secs

     WARNING: integrated charge=    26.00172925, expected=    26.00000000

     total energy              =    -503.16597625 Ry
     estimated scf accuracy    <       0.00000598 Ry

     iteration #  6     ecut=    50.00 Ry     beta= 0.40
     Davidson diagonalization with overlap

---- Real-time Memory Report at c_bands before calling an iterative solver
           119 MiB given to the printing process from OS
             0 MiB allocation reported by mallinfo(arena+hblkhd)
          4309 MiB available memory on the node where the printing process lives
------------------
     ethr =  2.30E-08,  avg # of iterations =  2.7

     total cpu time spent up to now is      125.3 secs

     WARNING: integrated charge=    26.00174040, expected=    26.00000000

     total energy              =    -503.16599013 Ry
     estimated scf accuracy    <       0.00000672 Ry

     iteration #  7     ecut=    50.00 Ry     beta= 0.40
     Davidson diagonalization with overlap

---- Real-time Memory Report at c_bands before calling an iterative solver
           119 MiB given to the printing process from OS
             0 MiB allocation reported by mallinfo(arena+hblkhd)
          4303 MiB available memory on the node where the printing process lives
------------------
     ethr =  2.30E-08,  avg # of iterations =  2.0

     total cpu time spent up to now is      138.6 secs

     WARNING: integrated charge=    26.00173834, expected=    26.00000000

     total energy              =    -503.16599080 Ry
     estimated scf accuracy    <       0.00000040 Ry

     iteration #  8     ecut=    50.00 Ry     beta= 0.40
     Davidson diagonalization with overlap

---- Real-time Memory Report at c_bands before calling an iterative solver
           119 MiB given to the printing process from OS
             0 MiB allocation reported by mallinfo(arena+hblkhd)
          4330 MiB available memory on the node where the printing process lives
------------------
     ethr =  1.54E-09,  avg # of iterations =  2.0

     total cpu time spent up to now is      157.7 secs

     End of self-consistent calculation

          k = 0.0000 0.0000 0.0000 (   739 PWs)   bands (ev):

  -109.9965 -64.1781 -64.1781 -64.1781  -4.6523   8.0448   8.0448   9.4074
     9.4074   9.4074  13.3515  13.3515  13.3515  14.6794  29.5057  29.5057
    33.8737

     occupation numbers 
     1.0000   1.0000   1.0000   1.0000   1.0000   1.0000   1.0000   1.0000
     1.0000   1.0000   1.0000   1.0000   1.0000   1.0002   0.0000   0.0000
     0.0000

          k = 0.0000 0.0000 0.0833 (   723 PWs)   bands (ev):

  -109.9963 -64.1799 -64.1779 -64.1779  -4.5675   8.0533   8.0568   9.3412
     9.3412   9.4104  12.4261  13.4597  13.4597  15.5337  29.0194  29.6037
    33.7467

     occupation numbers 
     1.0000   1.0000   1.0000   1.0000   1.0000   1.0000   1.0000   1.0000
     1.0000   1.0000   1.0000   1.0000   1.0000   0.0459   0.0000   0.0000
     0.0000

          k = 0.0000 0.0000 0.1667 (   703 PWs)   bands (ev):

  -109.9959 -64.1851 -64.1773 -64.1773  -4.3245   7.9943   8.0897   9.1739
     9.1739   9.4186  11.1842  13.7453  13.7453  16.6918  27.8306  29.8990
    33.3682

     occupation numbers 
     1.0000   1.0000   1.0000   1.0000   1.0000   1.0000   1.0000   1.0000
     1.0000   1.0000   1.0000   1.0000   1.0000   0.0000   0.0000   0.0000
     0.0000

          k = 0.0000 0.0000 0.2500 (   699 PWs)   bands (ev):

  -109.9953 -64.1926 -64.1766 -64.1766  -3.9612   7.6076   8.1347   8.9697
     8.9697   9.4298  10.3840  14.1200  14.1200  17.7741  26.3018  30.3923
    32.7912

     occupation numbers 
     1.0000   1.0000   1.0000   1.0000   1.0000   1.0000   1.0000   1.0000
     1.0000   1.0000   1.0000   1.0000   1.0000   0.0000   0.0000   0.0000
     0.0000

          k = 0.0000 0.0000 0.3333 (   687 PWs)   bands (ev):

  -109.9948 -64.2000 -64.1759 -64.1759  -3.5507   6.8482   8.1801   8.7867
     8.7867   9.4411  10.1849  14.4855  14.4855  18.8186  24.6801  31.0699
    32.1655

     occupation numbers 
     1.0000   1.0000   1.0000   1.0000   1.0000   1.0000   1.0000   1.0000
     1.0000   1.0000   1.0000   1.0000   1.0000   0.0000   0.0000   0.0000
     0.0000

          k = 0.0000 0.0000 0.4167 (   695 PWs)   bands (ev):

  -109.9944 -64.2055 -64.1756 -64.1756  -3.2097   6.1537   8.2135   8.6630
     8.6630   9.4492  10.2392  14.7512  14.7512  19.8620  23.1771  31.6866
    31.6867

     occupation numbers 
     1.0000   1.0000   1.0000   1.0000   1.0000   1.0000   1.0000   1.0000
     1.0000   1.0000   1.0000   1.0012   1.0012   0.0000   0.0000   0.0000
     0.0000

          k = 0.0000 0.0000-0.5000 (   682 PWs)   bands (ev):

  -109.9942 -64.2073 -64.1754 -64.1754  -3.0738   5.8815   8.2258   8.6197
     8.6197   9.4523  10.2823  14.8485  14.8485  20.5437  22.3222  31.5083
    31.5083

     occupation numbers 
     1.0000   1.0000   1.0000   1.0000   1.0000   1.0000   1.0000   1.0000
     1.0000   1.0000   1.0000   1.0086   1.0086   0.0000   0.0000   0.0000
     0.0000

          k = 0.0000 0.0833 0.0833 (   719 PWs)   bands (ev):

  -109.9962 -64.1798 -64.1798 -64.1777  -4.4840   8.0643   8.0734   9.2652
     9.3107   9.3841  12.1769  13.1182  13.5579  16.1624  28.9326  29.3187
    33.6484

     occupation numbers 
     1.0000   1.0000   1.0000   1.0000   1.0000   1.0000   1.0000   1.0000
     1.0000   1.0000   1.0000   1.0000   1.0000   0.0000   0.0000   0.0000
     0.0000

          k = 0.0000 0.0833 0.1667 (   705 PWs)   bands (ev):

  -109.9957 -64.1850 -64.1793 -64.1771  -4.2452   8.0242   8.1073   9.0833
     9.1687   9.3821  11.2327  13.2146  13.8185  17.2009  27.8807  29.4025
    33.3485

     occupation numbers 
     1.0000   1.0000   1.0000   1.0000   1.0000   1.0000   1.0000   1.0000
     1.0000   1.0000   1.0000   1.0000   1.0000   0.0000   0.0000   0.0000
     0.0000

          k = 0.0000 0.0833 0.2500 (   695 PWs)   bands (ev):

  -109.9952 -64.1924 -64.1786 -64.1764  -3.8887   7.6622   8.1549   8.9075
     8.9793   9.3951  10.4565  13.5697  14.1620  18.2138  26.3183  29.7106
    32.8648

     occupation numbers 
     1.0000   1.0000   1.0000   1.0000   1.0000   1.0000   1.0000   1.0000
     1.0000   1.0000   1.0000   1.0000   1.0000   0.0000   0.0000   0.0000
     0.0000

          k = 0.0000 0.0833 0.3333 (   694 PWs)   bands (ev):

  -109.9946 -64.1999 -64.1780 -64.1758  -3.4871   6.9380   8.2056   8.7673
     8.8064   9.4097  10.2112  13.9490  14.4976  19.1986  24.6501  30.0525
    32.3162

     occupation numbers 
     1.0000   1.0000   1.0000   1.0000   1.0000   1.0000   1.0000   1.0000
     1.0000   1.0000   1.0000   1.0000   1.0000   0.0000   0.0000   0.0000
     0.0000

          k = 0.0000 0.0833 0.4167 (   698 PWs)   bands (ev):

  -109.9942 -64.2054 -64.1776 -64.1755  -3.1545   6.2713   8.2463   8.6543
     8.6885   9.4207  10.2406  14.2368  14.7416  20.2174  23.0923  30.2855
    31.8850

     occupation numbers 
     1.0000   1.0000   1.0000   1.0000   1.0000   1.0000   1.0000   1.0000
     1.0000   1.0000   1.0000   1.0000   1.0010   0.0000   0.0000   0.0000
     0.0000

          k = 0.0000 0.0833-0.5000 (   694 PWs)   bands (ev):

  -109.9941 -64.2073 -64.1774 -64.1753  -3.0223   6.0090   8.2628   8.6102
     8.6471   9.4247  10.2776  14.3449  14.8309  21.0085  22.0980  30.3512
    31.7226

     occupation numbers 
     1.0000   1.0000   1.0000   1.0000   1.0000   1.0000   1.0000   1.0000
     1.0000   1.0000   1.0000   1.0000   1.0063   0.0000   0.0000   0.0000
     0.0000

          k = 0.0000 0.1667 0.1667 (   698 PWs)   bands (ev):

  -109.9953 -64.1847 -64.1846 -64.1766  -4.0188   8.0272   8.1636   8.8877
     9.1229   9.3204  11.1388  12.5035  14.0143  18.1238  27.9856  28.0825
    33.2601

     occupation numbers 
     1.0000   1.0000   1.0000   1.0000   1.0000   1.0000   1.0000   1.0000
     1.0000   1.0000   1.0000   1.0000   1.0000   0.0000   0.0000   0.0000
     0.0000

          k = 0.0000 0.1667 0.2500 (   701 PWs)   bands (ev):

  -109.9948 -64.1921 -64.1840 -64.1761  -3.6826   7.7654   8.2207   8.7745
     8.9990   9.3099  10.6152  12.5015  14.2743  19.0230  26.3100  28.2116
    33.0520

     occupation numbers 
     1.0000   1.0000   1.0000   1.0000   1.0000   1.0000   1.0000   1.0000
     1.0000   1.0000   1.0000   1.0000   1.0000   0.0000   0.0000   0.0000
     0.0000

          k = 0.0000 0.1667 0.3333 (   700 PWs)   bands (ev):

  -109.9942 -64.1995 -64.1835 -64.1755  -3.3069   7.1767   8.2802   8.7251
     8.8597   9.3268  10.2797  12.8088  14.5291  19.8548  24.5733  28.4127
    32.7459

     occupation numbers 
     1.0000   1.0000   1.0000   1.0000   1.0000   1.0000   1.0000   1.0000
     1.0000   1.0000   1.0000   1.0000   1.0000   0.0000   0.0000   0.0000
     0.0000

          k = 0.0000 0.1667 0.4167 (   701 PWs)   bands (ev):

  -109.9938 -64.2049 -64.1831 -64.1751  -2.9989   6.6076   8.3373   8.6393
     8.7593   9.3437  10.2401  13.0953  14.7139  20.6912  23.0482  28.5715
    32.4674

     occupation numbers 
     1.0000   1.0000   1.0000   1.0000   1.0000   1.0000   1.0000   1.0000
     1.0000   1.0000   1.0000   1.0000   1.0005   0.0000   0.0000   0.0000
     0.0000

          k = 0.0000 0.1667-0.5000 (   694 PWs)   bands (ev):

  -109.9937 -64.2068 -64.1828 -64.1749  -2.8774   6.3785   8.3667   8.5914
     8.7233   9.3503  10.2595  13.2108  14.7814  21.4242  22.0566  28.6330
    32.3556

     occupation numbers 
     1.0000   1.0000   1.0000   1.0000   1.0000   1.0000   1.0000   1.0000
     1.0000   1.0000   1.0000   1.0000   1.0024   0.0000   0.0000   0.0000
     0.0000

          k = 0.0000 0.2500 0.2500 (   708 PWs)   bands (ev):

  -109.9943 -64.1916 -64.1915 -64.1756  -3.3792   7.7341   8.3267   8.6934
     8.9934   9.2330  10.6473  11.6945  14.4234  19.7268  25.7669  27.1390
    33.2592

     occupation numbers 
     1.0000   1.0000   1.0000   1.0000   1.0000   1.0000   1.0000   1.0000
     1.0000   1.0000   1.0000   1.0000   1.0000   0.0000   0.0000   0.0000
     0.0000

          k = 0.0000 0.2500 0.3333 (   700 PWs)   bands (ev):

  -109.9937 -64.1988 -64.1908 -64.1750  -3.0443   7.4582   8.4085   8.6971
     8.9287   9.2221  10.3589  11.6393  14.5685  20.1767  24.5047  27.0943
    33.3794

     occupation numbers 
     1.0000   1.0000   1.0000   1.0000   1.0000   1.0000   1.0000   1.0000
     1.0000   1.0000   1.0000   1.0000   1.0000   0.0000   0.0000   0.0000
     0.0000

          k = 0.0000 0.2500 0.4167 (   694 PWs)   bands (ev):

  -109.9933 -64.2042 -64.1904 -64.1745  -2.7738   7.1044   8.4724   8.6476
     8.8583   9.2411  10.2221  11.8368  14.6728  20.3534  23.5821  27.2362
    33.3925

     occupation numbers 
     1.0000   1.0000   1.0000   1.0000   1.0000   1.0000   1.0000   1.0000
     1.0000   1.0000   1.0000   1.0000   1.0002   0.0000   0.0000   0.0000
     0.0000

          k = 0.0000 0.2500-0.5000 (   692 PWs)   bands (ev):

  -109.9931 -64.2062 -64.1902 -64.1743  -2.6683   6.9455   8.5187   8.5901
     8.8305   9.2507  10.2138  11.9347  14.7106  20.3734  23.2728  27.3080
    33.1214

     occupation numbers 
     1.0000   1.0000   1.0000   1.0000   1.0000   1.0000   1.0000   1.0000
     1.0000   1.0000   1.0000   1.0000   1.0005   0.0000   0.0000   0.0000
     0.0000

          k = 0.0000 0.3333 0.3333 (   700 PWs)   bands (ev):

  -109.9931 -64.1983 -64.1982 -64.1744  -2.7587   7.6224   8.5751   8.7052
     8.9750   9.1453  10.3364  10.8683  14.6040  19.9331  24.4935  26.4587
    33.4678

     occupation numbers 
     1.0000   1.0000   1.0000   1.0000   1.0000   1.0000   1.0000   1.0000
     1.0000   1.0000   1.0000   1.0000   1.0000   0.0000   0.0000   0.0000
     0.0000

          k = 0.0000 0.3333 0.4167 (   692 PWs)   bands (ev):

  -109.9927 -64.2035 -64.1977 -64.1739  -2.5318   7.6354   8.6631   8.7027
     8.9592   9.1420  10.1473  10.7528  14.6276  19.4356  24.4778  26.3949
    32.9446

     occupation numbers 
     1.0000   1.0000   1.0000   1.0000   1.0000   1.0000   1.0000   1.0000
     1.0000   1.0000   1.0000   1.0000   1.0001   0.0000   0.0000   0.0000
     0.0000

          k = 0.0000 0.3333-0.5000 (   702 PWs)   bands (ev):

  -109.9926 -64.2055 -64.1977 -64.1739  -2.4444   7.6139   8.6501   8.7034
     8.9417   9.1530  10.1125  10.7721  14.6358  19.1961  24.4603  26.4569
    32.6906

     occupation numbers 
     1.0000   1.0000   1.0000   1.0000   1.0000   1.0000   1.0000   1.0000
     1.0000   1.0000   1.0000   1.0000   1.0001   0.0000   0.0000   0.0000
     0.0000

          k = 0.0000 0.4167 0.4167 (   696 PWs)   bands (ev):

  -109.9923 -64.2031 -64.2031 -64.1736  -2.3420   8.0239   8.7761   8.9105
     9.0252   9.0810   9.8975  10.1467  14.5918  18.5942  25.2216  26.0031
    32.2864

     occupation numbers 
     1.0000   1.0000   1.0000   1.0000   1.0000   1.0000   1.0000   1.0000
     1.0000   1.0000   1.0000   1.0000   1.0000   0.0000   0.0000   0.0000
     0.0000

          k = 0.0000 0.4167-0.5000 (   690 PWs)   bands (ev):

  -109.9922 -64.2050 -64.2029 -64.1734  -2.2695   8.1762   8.8319   8.9534
     9.0260   9.0829   9.8489   9.9196  14.5781  18.2584  25.4312  25.9904
    31.9616

     occupation numbers 
     1.0000   1.0000   1.0000   1.0000   1.0000   1.0000   1.0000   1.0000
     1.0000   1.0000   1.0000   1.0000   1.0000   0.0000   0.0000   0.0000
     0.0000

          k = 0.0000-0.5000-0.5000 (   680 PWs)   bands (ev):

  -109.9920 -64.2047 -64.2047 -64.1732  -2.2027   8.3724   9.0575   9.0575
     9.1895   9.1895   9.2296   9.7332  14.5564  17.8971  25.8412  25.8412
    31.5940

     occupation numbers 
     1.0000   1.0000   1.0000   1.0000   1.0000   1.0000   1.0000   1.0000
     1.0000   1.0000   1.0000   1.0000   1.0000   0.0000   0.0000   0.0000
     0.0000

          k = 0.0833 0.0833 0.0833 (   709 PWs)   bands (ev):

  -109.9960 -64.1796 -64.1796 -64.1795  -4.4019   8.0861   8.0861   9.1997
     9.3139   9.3139  11.9915  13.2318  13.2318  16.6835  28.9880  28.9880
    32.5930

     occupation numbers 
     1.0000   1.0000   1.0000   1.0000   1.0000   1.0000   1.0000   1.0000
     1.0000   1.0000   1.0000   1.0000   1.0000   0.0000   0.0000   0.0000
     0.0000

          k = 0.0833 0.0833 0.1667 (   699 PWs)   bands (ev):

  -109.9956 -64.1849 -64.1791 -64.1790  -4.1670   8.0643   8.1214   9.0412
     9.1370   9.3286  11.2452  13.1457  13.5310  17.6253  27.9199  29.1403
    32.1526

     occupation numbers 
     1.0000   1.0000   1.0000   1.0000   1.0000   1.0000   1.0000   1.0000
     1.0000   1.0000   1.0000   1.0000   1.0000   0.0000   0.0000   0.0000
     0.0000

          k = 0.0833 0.0833 0.2500 (   696 PWs)   bands (ev):

  -109.9950 -64.1923 -64.1784 -64.1784  -3.8170   7.7237   8.1716   8.9209
     8.9222   9.3498  10.5129  13.3883  13.9230  18.5679  26.3514  29.3409
    32.0395

     occupation numbers 
     1.0000   1.0000   1.0000   1.0000   1.0000   1.0000   1.0000   1.0000
     1.0000   1.0000   1.0000   1.0000   1.0000   0.0000   0.0000   0.0000
     0.0000

          k = 0.0833 0.0833 0.3333 (   695 PWs)   bands (ev):

  -109.9945 -64.1998 -64.1779 -64.1778  -3.4237   7.0287   8.2269   8.7231
     8.8514   9.3719  10.2394  13.6946  14.3062  19.4895  24.6606  29.4982
    31.9678

     occupation numbers 
     1.0000   1.0000   1.0000   1.0000   1.0000   1.0000   1.0000   1.0000
     1.0000   1.0000   1.0000   1.0000   1.0000   0.0000   0.0000   0.0000
     0.0000

          k = 0.0833 0.0833 0.4167 (   693 PWs)   bands (ev):

  -109.9941 -64.2052 -64.1774 -64.1774  -3.0990   6.3860   8.2766   8.5805
     8.7786   9.3880  10.2491  13.9384  14.5861  20.4707  23.0767  29.5387
    31.8846

     occupation numbers 
     1.0000   1.0000   1.0000   1.0000   1.0000   1.0000   1.0000   1.0000
     1.0000   1.0000   1.0000   1.0000   1.0000   0.0000   0.0000   0.0000
     0.0000

          k = 0.0833 0.0833-0.5000 (   696 PWs)   bands (ev):

  -109.9939 -64.2072 -64.1774 -64.1772  -2.9703   6.1324   8.3007   8.5244
     8.7474   9.3938  10.2814  14.0317  14.6890  21.4011  21.9194  29.5264
    31.8452

     occupation numbers 
     1.0000   1.0000   1.0000   1.0000   1.0000   1.0000   1.0000   1.0000
     1.0000   1.0000   1.0000   1.0000   1.0003   0.0000   0.0000   0.0000
     0.0000

          k = 0.0833 0.1667 0.1667 (   698 PWs)   bands (ev):

  -109.9952 -64.1845 -64.1844 -64.1786  -3.9439   8.0897   8.1736   8.8872
     9.0838   9.2419  11.0932  12.6352  13.6423  18.4384  27.9520  28.1272
    31.6852

     occupation numbers 
     1.0000   1.0000   1.0000   1.0000   1.0000   1.0000   1.0000   1.0000
     1.0000   1.0000   1.0000   1.0000   1.0000   0.0000   0.0000   0.0000
     0.0000

          k = 0.0833 0.1667 0.2500 (   699 PWs)   bands (ev):

  -109.9946 -64.1919 -64.1839 -64.1780  -3.6132   7.8461   8.2255   8.7960
     8.9544   9.2440  10.6141  12.5574  13.9492  19.2448  26.3913  28.1082
    31.8185

     occupation numbers 
     1.0000   1.0000   1.0000   1.0000   1.0000   1.0000   1.0000   1.0000
     1.0000   1.0000   1.0000   1.0000   1.0000   0.0000   0.0000   0.0000
     0.0000

          k = 0.0833 0.1667 0.3333 (   699 PWs)   bands (ev):

  -109.9941 -64.1993 -64.1833 -64.1775  -3.2443   7.2689   8.2830   8.6736
     8.9209   9.2766  10.3017  12.7613  14.2679  19.9946  24.6768  28.1198
    32.0718

     occupation numbers 
     1.0000   1.0000   1.0000   1.0000   1.0000   1.0000   1.0000   1.0000
     1.0000   1.0000   1.0000   1.0000   1.0000   0.0000   0.0000   0.0000
     0.0000

          k = 0.0833 0.1667 0.4167 (   693 PWs)   bands (ev):

  -109.9937 -64.2046 -64.1828 -64.1770  -2.9426   6.7115   8.3457   8.5297
     8.8962   9.3040  10.2655  12.9722  14.5072  20.7540  23.1834  28.0647
    32.2486

     occupation numbers 
     1.0000   1.0000   1.0000   1.0000   1.0000   1.0000   1.0000   1.0000
     1.0000   1.0000   1.0000   1.0000   1.0000   0.0000   0.0000   0.0000
     0.0000

          k = 0.0833 0.1667-0.5000 (   692 PWs)   bands (ev):

  -109.9935 -64.2066 -64.1827 -64.1769  -2.8237   6.4873   8.4067   8.4386
     8.8780   9.3143  10.2867  13.0588  14.5965  21.3535  22.3096  28.0272
    32.3141

     occupation numbers 
     1.0000   1.0000   1.0000   1.0000   1.0000   1.0000   1.0000   1.0000
     1.0000   1.0000   1.0000   1.0000   1.0000   0.0000   0.0000   0.0000
     0.0000

          k = 0.0833 0.2500 0.2500 (   701 PWs)   bands (ev):

  -109.9941 -64.1914 -64.1912 -64.1774  -3.3133   7.8262   8.3100   8.7206
     8.9715   9.1621  10.5690  11.8578  14.1305  19.8371  25.9325  26.9909
    32.1180

     occupation numbers 
     1.0000   1.0000   1.0000   1.0000   1.0000   1.0000   1.0000   1.0000
     1.0000   1.0000   1.0000   1.0000   1.0000   0.0000   0.0000   0.0000
     0.0000

          k = 0.0833 0.2500 0.3333 (   702 PWs)   bands (ev):

  -109.9935 -64.1987 -64.1907 -64.1770  -2.9828   7.5440   8.3620   8.6668
     8.9973   9.1751  10.3379  11.7256  14.3294  20.2171  24.6461  26.8469
    32.5475

     occupation numbers 
     1.0000   1.0000   1.0000   1.0000   1.0000   1.0000   1.0000   1.0000
     1.0000   1.0000   1.0000   1.0000   1.0000   0.0000   0.0000   0.0000
     0.0000

          k = 0.0833 0.2500 0.4167 (   700 PWs)   bands (ev):

  -109.9931 -64.2040 -64.1903 -64.1766  -2.7161   7.1835   8.3806   8.5836
     9.0178   9.2103  10.2629  11.8247  14.4830  20.3770  23.6947  26.8154
    32.9166

     occupation numbers 
     1.0000   1.0000   1.0000   1.0000   1.0000   1.0000   1.0000   1.0000
     1.0000   1.0000   1.0000   1.0000   1.0000   0.0000   0.0000   0.0000
     0.0000

          k = 0.0833 0.2500-0.5000 (   694 PWs)   bands (ev):

  -109.9930 -64.2059 -64.1901 -64.1763  -2.6121   7.0227   8.3805   8.5547
     9.0124   9.2251  10.2764  11.8839  14.5414  20.4026  23.3688  26.7975
    33.1188

     occupation numbers 
     1.0000   1.0000   1.0000   1.0000   1.0000   1.0000   1.0000   1.0000
     1.0000   1.0000   1.0000   1.0000   1.0000   0.0000   0.0000   0.0000
     0.0000

          k = 0.0833 0.3333 0.3333 (   698 PWs)   bands (ev):

  -109.9930 -64.1981 -64.1980 -64.1763  -2.6983   7.6814   8.4454   8.6718
     9.0650   9.1639  10.2528  11.0693  14.4056  19.9697  24.5253  26.2019
    33.0829

     occupation numbers 
     1.0000   1.0000   1.0000   1.0000   1.0000   1.0000   1.0000   1.0000
     1.0000   1.0000   1.0000   1.0000   1.0000   0.0000   0.0000   0.0000
     0.0000

          k = 0.0833 0.3333 0.4167 (   696 PWs)   bands (ev):

  -109.9926 -64.2034 -64.1976 -64.1760  -2.4723   7.6661   8.4232   8.6625
     9.1177   9.2076  10.1808  10.8706  14.4673  19.5014  24.4140  26.0389
    33.0775

     occupation numbers 
     1.0000   1.0000   1.0000   1.0000   1.0000   1.0000   1.0000   1.0000
     1.0000   1.0000   1.0000   1.0000   1.0000   0.0000   0.0000   0.0000
     0.0000

          k = 0.0833 0.3333-0.5000 (   696 PWs)   bands (ev):

  -109.9924 -64.2053 -64.1974 -64.1758  -2.3851   7.6336   8.3738   8.6744
     9.1218   9.2191  10.2216  10.8274  14.4918  19.2736  24.3794  26.0222
    32.9484

     occupation numbers 
     1.0000   1.0000   1.0000   1.0000   1.0000   1.0000   1.0000   1.0000
     1.0000   1.0000   1.0000   1.0000   1.0000   0.0000   0.0000   0.0000
     0.0000

          k = 0.0833 0.4167 0.4167 (   693 PWs)   bands (ev):

  -109.9922 -64.2029 -64.2028 -64.1755  -2.2808   8.0013   8.4983   8.6294
     9.1625   9.3714   9.9807  10.3692  14.4571  18.6782  24.9883  25.6726
    32.5312

     occupation numbers 
     1.0000   1.0000   1.0000   1.0000   1.0000   1.0000   1.0000   1.0000
     1.0000   1.0000   1.0000   1.0000   1.0000   0.0000   0.0000   0.0000
     0.0000

          k = 0.0833 0.4167-0.5000 (   690 PWs)   bands (ev):

  -109.9920 -64.2048 -64.2027 -64.1754  -2.2075   8.1546   8.4359   8.6482
     9.1520   9.4354  10.0773  10.0962  14.4539  18.3448  25.1685  25.6130
    32.2721

     occupation numbers 
     1.0000   1.0000   1.0000   1.0000   1.0000   1.0000   1.0000   1.0000
     1.0000   1.0000   1.0000   1.0000   1.0000   0.0000   0.0000   0.0000
     0.0000

          k = 0.0833-0.5000-0.5000 (   692 PWs)   bands (ev):

  -109.9919 -64.2047 -64.2047 -64.1752  -2.1398   8.4597   8.4996   8.4996
     9.1091   9.7347   9.8507   9.8507  14.4395  17.9815  25.4851  25.4851
    31.9576

     occupation numbers 
     1.0000   1.0000   1.0000   1.0000   1.0000   1.0000   1.0000   1.0000
     1.0000   1.0000   1.0000   1.0000   1.0000   0.0000   0.0000   0.0000
     0.0000

          k = 0.1667 0.1667 0.1667 (   706 PWs)   bands (ev):

  -109.9948 -64.1842 -64.1841 -64.1841  -3.7309   8.2003   8.2003   8.8392
     9.0512   9.0512  10.8982  12.9786  12.9786  19.0644  27.8299  27.8299
    30.5355

     occupation numbers 
     1.0000   1.0000   1.0000   1.0000   1.0000   1.0000   1.0000   1.0000
     1.0000   1.0000   1.0000   1.0000   1.0000   0.0000   0.0000   0.0000
     0.0000

          k = 0.1667 0.1667 0.2500 (   701 PWs)   bands (ev):

  -109.9942 -64.1915 -64.1836 -64.1834  -3.4162   8.0302   8.2335   8.8320
     8.8783   9.0978  10.5415  12.5891  13.4267  19.6755  26.5069  27.5788
    30.6577

     occupation numbers 
     1.0000   1.0000   1.0000   1.0000   1.0000   1.0000   1.0000   1.0000
     1.0000   1.0000   1.0000   1.0000   1.0000   0.0000   0.0000   0.0000
     0.0000

          k = 0.1667 0.1667 0.3333 (   707 PWs)   bands (ev):

  -109.9937 -64.1989 -64.1831 -64.1828  -3.0671   7.5084   8.2577   8.6515
     9.0192   9.1631  10.3072  12.4945  13.8684  20.2234  24.8871  27.2135
    31.3697

     occupation numbers 
     1.0000   1.0000   1.0000   1.0000   1.0000   1.0000   1.0000   1.0000
     1.0000   1.0000   1.0000   1.0000   1.0000   0.0000   0.0000   0.0000
     0.0000

          k = 0.1667 0.1667 0.4167 (   694 PWs)   bands (ev):

  -109.9933 -64.2042 -64.1826 -64.1822  -2.7835   6.9977   8.2600   8.5487
     9.0621   9.2135  10.3142  12.5099  14.1959  20.7512  23.5290  26.8685
    32.0770

     occupation numbers 
     1.0000   1.0000   1.0000   1.0000   1.0000   1.0000   1.0000   1.0000
     1.0000   1.0000   1.0000   1.0000   1.0000   0.0000   0.0000   0.0000
     0.0000

          k = 0.1667 0.1667-0.5000 (   682 PWs)   bands (ev):

  -109.9931 -64.2060 -64.1823 -64.1820  -2.6723   6.7912   8.2543   8.5200
     9.0592   9.2321  10.3557  12.5267  14.3178  21.0751  22.8958  26.7259
    32.3838

     occupation numbers 
     1.0000   1.0000   1.0000   1.0000   1.0000   1.0000   1.0000   1.0000
     1.0000   1.0000   1.0000   1.0000   1.0000   0.0000   0.0000   0.0000
     0.0000

          k = 0.1667 0.2500 0.2500 (   699 PWs)   bands (ev):

  -109.9937 -64.1910 -64.1907 -64.1829  -3.1267   8.0469   8.2499   8.7890
     8.9460   9.0218  10.3322  12.2752  13.4768  20.0419  26.2004  26.5488
    30.5861

     occupation numbers 
     1.0000   1.0000   1.0000   1.0000   1.0000   1.0000   1.0000   1.0000
     1.0000   1.0000   1.0000   1.0000   1.0000   0.0000   0.0000   0.0000
     0.0000

          k = 0.1667 0.2500 0.3333 (   701 PWs)   bands (ev):

  -109.9931 -64.1983 -64.1902 -64.1823  -2.8085   7.7495   8.2025   8.7119
     9.0860   9.1234  10.1899  11.9856  13.7992  20.2790  24.8925  26.1172
    31.2836

     occupation numbers 
     1.0000   1.0000   1.0000   1.0000   1.0000   1.0000   1.0000   1.0000
     1.0000   1.0000   1.0000   1.0000   1.0000   0.0000   0.0000   0.0000
     0.0000

          k = 0.1667 0.2500 0.4167 (   693 PWs)   bands (ev):

  -109.9927 -64.2035 -64.1898 -64.1818  -2.5526   7.3775   8.1331   8.6768
     9.1562   9.1768  10.3238  11.8100  14.0819  20.4057  23.8966  25.7236
    32.1746

     occupation numbers 
     1.0000   1.0000   1.0000   1.0000   1.0000   1.0000   1.0000   1.0000
     1.0000   1.0000   1.0000   1.0000   1.0000   0.0000   0.0000   0.0000
     0.0000

          k = 0.1667 0.2500-0.5000 (   694 PWs)   bands (ev):

  -109.9926 -64.2055 -64.1896 -64.1817  -2.4531   7.2152   8.1038   8.6705
     9.1677   9.1828  10.4448  11.7370  14.1930  20.4442  23.5368  25.5564
    32.6464

     occupation numbers 
     1.0000   1.0000   1.0000   1.0000   1.0000   1.0000   1.0000   1.0000
     1.0000   1.0000   1.0000   1.0000   1.0000   0.0000   0.0000   0.0000
     0.0000

          k = 0.1667 0.3333 0.3333 (   691 PWs)   bands (ev):

  -109.9926 -64.1975 -64.1975 -64.1817  -2.5271   7.7822   8.1710   8.7145
     9.1935   9.2011  10.0550  11.5745  13.9326  20.0586  24.4507  25.4824
    31.7167

     occupation numbers 
     1.0000   1.0000   1.0000   1.0000   1.0000   1.0000   1.0000   1.0000
     1.0000   1.0000   1.0000   1.0000   1.0000   0.0000   0.0000   0.0000
     0.0000

          k = 0.1667 0.3333 0.4167 (   696 PWs)   bands (ev):

  -109.9922 -64.2029 -64.1971 -64.1813  -2.3034   7.6870   8.0680   8.7236
     9.1638   9.2898  10.2781  11.2721  14.0912  19.6836  24.1214  25.0798
    32.4707

     occupation numbers 
     1.0000   1.0000   1.0000   1.0000   1.0000   1.0000   1.0000   1.0000
     1.0000   1.0000   1.0000   1.0000   1.0000   0.0000   0.0000   0.0000
     0.0000

          k = 0.1667 0.3333-0.5000 (   692 PWs)   bands (ev):

  -109.9920 -64.2048 -64.1969 -64.1812  -2.2170   7.6274   8.0087   8.7409
     9.1146   9.3194  10.5388  11.0696  14.1611  19.4937  24.0668  24.8835
    33.0561

     occupation numbers 
     1.0000   1.0000   1.0000   1.0000   1.0000   1.0000   1.0000   1.0000
     1.0000   1.0000   1.0000   1.0000   1.0000   0.0000   0.0000   0.0000
     0.0000

          k = 0.1667 0.4167 0.4167 (   692 PWs)   bands (ev):

  -109.9918 -64.2024 -64.2024 -64.1809  -2.1069   7.8269   8.0442   8.7051
     9.0024   9.5169  10.3812  10.9724  14.1348  18.9290  24.2728  24.7753
    32.8779

     occupation numbers 
     1.0000   1.0000   1.0000   1.0000   1.0000   1.0000   1.0000   1.0000
     1.0000   1.0000   1.0000   1.0000   1.0000   0.0000   0.0000   0.0000
     0.0000

          k = 0.1667 0.4167-0.5000 (   688 PWs)   bands (ev):

  -109.9916 -64.2043 -64.2022 -64.1807  -2.0316   7.8990   7.9811   8.7185
     8.8961   9.5997  10.6241  10.7426  14.1582  18.6071  24.4095  24.6010
    33.5052

     occupation numbers 
     1.0000   1.0000   1.0000   1.0000   1.0000   1.0000   1.0000   1.0000
     1.0000   1.0000   1.0000   1.0000   1.0000   0.0000   0.0000   0.0000
     0.0000

          k = 0.1667-0.5000-0.5000 (   692 PWs)   bands (ev):

  -109.9915 -64.2042 -64.2042 -64.1807  -1.9607   7.9886   7.9886   8.7020
     8.7608   9.7388  10.6652  10.6652  14.1593  18.2422  24.5277  24.5277
    32.9434

     occupation numbers 
     1.0000   1.0000   1.0000   1.0000   1.0000   1.0000   1.0000   1.0000
     1.0000   1.0000   1.0000   1.0000   1.0000   0.0000   0.0000   0.0000
     0.0000

          k = 0.2500 0.2500 0.2500 (   702 PWs)   bands (ev):

  -109.9932 -64.1906 -64.1901 -64.1901  -2.8534   8.1375   8.1375   8.9175
     8.9175   9.0485  10.0043  12.8165  12.8165  20.1932  25.8617  25.8617
    30.0242

     occupation numbers 
     1.0000   1.0000   1.0000   1.0000   1.0000   1.0000   1.0000   1.0000
     1.0000   1.0000   1.0000   1.0000   1.0000   0.0000   0.0000   0.0000
     0.0000

          k = 0.2500 0.2500 0.3333 (   694 PWs)   bands (ev):

  -109.9926 -64.1976 -64.1896 -64.1895  -2.5541   7.8939   8.0051   8.8731
     9.0630   9.2201   9.9413  12.2833  13.3589  20.2725  24.8414  25.0881
    30.6364

     occupation numbers 
     1.0000   1.0000   1.0000   1.0000   1.0000   1.0000   1.0000   1.0000
     1.0000   1.0000   1.0000   1.0000   1.0000   0.0000   0.0000   0.0000
     0.0000

          k = 0.2500 0.2500 0.4167 (   697 PWs)   bands (ev):

  -109.9922 -64.2030 -64.1893 -64.1890  -2.3146   7.5630   7.9042   8.8616
     9.1292   9.1802  10.3779  11.8358  13.7730  20.3123  23.9347  24.4698
    31.6141

     occupation numbers 
     1.0000   1.0000   1.0000   1.0000   1.0000   1.0000   1.0000   1.0000
     1.0000   1.0000   1.0000   1.0000   1.0000   0.0000   0.0000   0.0000
     0.0000

          k = 0.2500 0.2500-0.5000 (   680 PWs)   bands (ev):

  -109.9920 -64.2047 -64.1890 -64.1887  -2.2218   7.4170   7.8674   8.8604
     9.0961   9.2026  10.6963  11.5710  13.9308  20.3273  23.5876  24.2321
    32.1522

     occupation numbers 
     1.0000   1.0000   1.0000   1.0000   1.0000   1.0000   1.0000   1.0000
     1.0000   1.0000   1.0000   1.0000   1.0000   0.0000   0.0000   0.0000
     0.0000

          k = 0.2500 0.3333 0.3333 (   695 PWs)   bands (ev):

  -109.9920 -64.1970 -64.1969 -64.1890  -2.2770   7.7786   7.8887   8.9396
     9.0970   9.2202  10.0595  12.2291  13.3987  20.1434  24.0292  24.4613
    30.7610

     occupation numbers 
     1.0000   1.0000   1.0000   1.0000   1.0000   1.0000   1.0000   1.0000
     1.0000   1.0000   1.0000   1.0000   1.0000   0.0000   0.0000   0.0000
     0.0000

          k = 0.2500 0.3333 0.4167 (   696 PWs)   bands (ev):

  -109.9917 -64.2023 -64.1965 -64.1886  -2.0563   7.6182   7.7530   8.8425
     8.9918   9.3555  10.5923  11.8557  13.6968  19.9207  23.4719  23.8665
    31.2874

     occupation numbers 
     1.0000   1.0000   1.0000   1.0000   1.0000   1.0000   1.0000   1.0000
     1.0000   1.0000   1.0000   1.0000   1.0000   0.0000   0.0000   0.0000
     0.0000

          k = 0.2500 0.3333-0.5000 (   684 PWs)   bands (ev):

  -109.9915 -64.2041 -64.1963 -64.1883  -1.9711   7.5367   7.6974   8.7725
     8.9904   9.4002  11.0250  11.5081  13.8371  19.7978  23.4425  23.4762
    31.6123

     occupation numbers 
     1.0000   1.0000   1.0000   1.0000   1.0000   1.0000   1.0000   1.0000
     1.0000   1.0000   1.0000   1.0000   1.0000   0.0000   0.0000   0.0000
     0.0000

          k = 0.2500 0.4167 0.4167 (   688 PWs)   bands (ev):

  -109.9912 -64.2018 -64.2018 -64.1881  -1.8516   7.5781   7.6706   8.5273
     9.0220   9.5698  11.0039  11.7529  13.7790  19.3341  23.1850  23.5499
    31.1557

     occupation numbers 
     1.0000   1.0000   1.0000   1.0000   1.0000   1.0000   1.0000   1.0000
     1.0000   1.0000   1.0000   1.0000   1.0000   0.0000   0.0000   0.0000
     0.0000

          k = 0.2500 0.4167-0.5000 (   688 PWs)   bands (ev):

  -109.9911 -64.2037 -64.2016 -64.1880  -1.7728   7.5790   7.6081   8.4039
     9.0313   9.6471  11.3757  11.5274  13.8405  19.0470  23.2411  23.3104
    31.1294

     occupation numbers 
     1.0000   1.0000   1.0000   1.0000   1.0000   1.0000   1.0000   1.0000
     1.0000   1.0000   1.0000   1.0000   1.0000   0.0000   0.0000   0.0000
     0.0000

          k = 0.2500-0.5000-0.5000 (   688 PWs)   bands (ev):

  -109.9910 -64.2035 -64.2035 -64.1878  -1.6966   7.5869   7.5869   8.2423
     9.0425   9.7444  11.5446  11.5446  13.8537  18.6952  23.2339  23.2339
    30.9286

     occupation numbers 
     1.0000   1.0000   1.0000   1.0000   1.0000   1.0000   1.0000   1.0000
     1.0000   1.0000   1.0000   1.0000   1.0000   0.0000   0.0000   0.0000
     0.0000

          k = 0.3333 0.3333 0.3333 (   693 PWs)   bands (ev):

  -109.9915 -64.1965 -64.1962 -64.1962  -2.0041   7.6617   7.6617   8.6907
     9.2425   9.2425  10.4828  12.9009  12.9009  20.1467  23.3904  23.3904
    30.3148

     occupation numbers 
     1.0000   1.0000   1.0000   1.0000   1.0000   1.0000   1.0000   1.0000
     1.0000   1.0000   1.0000   1.0000   1.0000   0.0000   0.0000   0.0000
     0.0000

          k = 0.3333 0.3333 0.4167 (   683 PWs)   bands (ev):

  -109.9911 -64.2016 -64.1958 -64.1957  -1.7865   7.5005   7.5175   8.3783
     9.2576   9.4363  11.1092  12.4069  13.4346  20.0422  22.5595  22.9076
    30.1480

     occupation numbers 
     1.0000   1.0000   1.0000   1.0000   1.0000   1.0000   1.0000   1.0000
     1.0000   1.0000   1.0000   1.0000   1.0000   0.0000   0.0000   0.0000
     0.0000

          k = 0.3333 0.3333-0.5000 (   682 PWs)   bands (ev):

  -109.9909 -64.2035 -64.1957 -64.1955  -1.7024   7.4181   7.4683   8.2749
     9.2629   9.5020  11.6171  11.9797  13.6449  19.9670  22.2406  22.7489
    30.1049

     occupation numbers 
     1.0000   1.0000   1.0000   1.0000   1.0000   1.0000   1.0000   1.0000
     1.0000   1.0000   1.0000   1.0000   1.0000   0.0000   0.0000   0.0000
     0.0000

          k = 0.3333 0.4167 0.4167 (   685 PWs)   bands (ev):

  -109.9907 -64.2012 -64.2011 -64.1953  -1.5712   7.3684   7.3962   7.9895
     9.3566   9.5950  11.7073  12.5577  13.4778  19.8301  22.0371  22.2897
    29.2553

     occupation numbers 
     1.0000   1.0000   1.0000   1.0000   1.0000   1.0000   1.0000   1.0000
     1.0000   1.0000   1.0000   1.0000   1.0000   0.0000   0.0000   0.0000
     0.0000

          k = 0.3333 0.4167-0.5000 (   684 PWs)   bands (ev):

  -109.9906 -64.2031 -64.2010 -64.1951  -1.4879   7.3296   7.3358   7.8484
     9.3729   9.6703  12.1734  12.3106  13.6025  19.6311  21.8676  22.1439
    28.9061

     occupation numbers 
     1.0000   1.0000   1.0000   1.0000   1.0000   1.0000   1.0000   1.0000
     1.0000   1.0000   1.0000   1.0000   1.0000   0.0000   0.0000   0.0000
     0.0000

          k = 0.3333-0.5000-0.5000 (   680 PWs)   bands (ev):

  -109.9904 -64.2029 -64.2029 -64.1949  -1.4049   7.2977   7.2977   7.6772
     9.3940   9.7500  12.4196  12.4196  13.6169  19.3392  21.9070  21.9070
    28.4339

     occupation numbers 
     1.0000   1.0000   1.0000   1.0000   1.0000   1.0000   1.0000   1.0000
     1.0000   1.0000   1.0000   1.0000   1.0000   0.0000   0.0000   0.0000
     0.0000

          k = 0.4167 0.4167 0.4167 (   690 PWs)   bands (ev):

  -109.9903 -64.2008 -64.2007 -64.2007  -1.3460   7.2290   7.2290   7.5638
     9.6081   9.6081  12.3766  13.2153  13.2153  20.1582  21.3045  21.3045
    27.7897

     occupation numbers 
     1.0000   1.0000   1.0000   1.0000   1.0000   1.0000   1.0000   1.0000
     1.0000   1.0000   1.0000   1.0000   1.0000   0.0000   0.0000   0.0000
     0.0000

          k = 0.4167 0.4167-0.5000 (   686 PWs)   bands (ev):

  -109.9902 -64.2026 -64.2006 -64.2005  -1.2585   7.1729   7.1752   7.4069
     9.6122   9.7003  12.8513  12.9216  13.4829  20.1247  20.9191  21.2226
    27.2111

     occupation numbers 
     1.0000   1.0000   1.0000   1.0000   1.0000   1.0000   1.0000   1.0000
     1.0000   1.0000   1.0000   1.0000   1.0000   0.0000   0.0000   0.0000
     0.0000

          k = 0.4167-0.5000-0.5000 (   684 PWs)   bands (ev):

  -109.9900 -64.2024 -64.2024 -64.2004  -1.1691   7.1230   7.1230   7.2337
     9.6576   9.7540  13.1364  13.1364  13.4771  20.0651  20.8622  20.8622
    26.5294

     occupation numbers 
     1.0000   1.0000   1.0000   1.0000   1.0000   1.0000   1.0000   1.0000
     1.0000   1.0000   1.0000   1.0000   1.0000   0.0000   0.0000   0.0000
     0.0000

          k =-0.5000-0.5000-0.5000 (   672 PWs)   bands (ev):

  -109.9899 -64.2022 -64.2022 -64.2022  -1.0770   7.0646   7.0646   7.0646
     9.7556   9.7556  13.4317  13.4317  13.4317  20.4489  20.4489  20.4489
    25.7408

     occupation numbers 
     1.0000   1.0000   1.0000   1.0000   1.0000   1.0000   1.0000   1.0000
     1.0000   1.0000   1.0000   1.0000   1.0000   0.0000   0.0000   0.0000
     0.0000

     the Fermi energy is    15.3595 ev

     WARNING: integrated charge=    26.00173569, expected=    26.00000000

!    total energy              =    -503.16598944 Ry
     estimated scf accuracy    <          1.0E-08 Ry
     smearing contrib. (-TS)   =       0.00000630 Ry
     internal energy E=F+TS    =    -503.16599574 Ry

     The total energy is F=E-TS. E is the sum of the following terms:
     one-electron contribution =    -333.77227026 Ry
     hartree contribution      =     182.71845818 Ry
     xc contribution           =     -49.85351333 Ry
     ewald contribution        =    -292.73202449 Ry
     one-center paw contrib.   =      -9.52664584 Ry
      -> PAW hartree energy AE =      26.38850099 Ry
      -> PAW hartree energy PS =     -26.26948768 Ry
      -> PAW xc energy AE      =     -16.71835563 Ry
      -> PAW xc energy PS      =       7.07269648 Ry
      -> total E_H with PAW    =     182.83747149 Ry
      -> total E_XC with PAW   =     -59.49917248 Ry

     convergence has been achieved in   8 iterations

     Forces acting on atoms (cartesian axes, Ry/au):

     atom    1 type  2   force =     0.00000000    0.00000000    0.00000000
     atom    2 type  1   force =     0.00000000    0.00000000    0.00000000
     The non-local contrib.  to forces
     atom    1 type  2   force =     0.00000000    0.00000000    0.00000000
     atom    2 type  1   force =     0.00000000    0.00000000    0.00000000
     The ionic contribution  to forces
     atom    1 type  2   force =    -0.00000000   -0.00000000   -0.00000000
     atom    2 type  1   force =     0.00000000    0.00000000    0.00000000
     The local contribution  to forces
     atom    1 type  2   force =    -0.00000000   -0.00000000   -0.00000000
     atom    2 type  1   force =     0.00000000    0.00000000    0.00000000
     The core correction contribution to forces
     atom    1 type  2   force =     0.00000000    0.00000000    0.00000000
     atom    2 type  1   force =    -0.00000000   -0.00000000    0.00000000
     The Hubbard contrib.    to forces
     atom    1 type  2   force =     0.00000000    0.00000000    0.00000000
     atom    2 type  1   force =     0.00000000    0.00000000    0.00000000
     The SCF correction term to forces
     atom    1 type  2   force =     0.00000000    0.00000000   -0.00000000
     atom    2 type  1   force =    -0.00000000   -0.00000000    0.00000000

     Total force =     0.000000     Total SCF correction =     0.000000


     Computing stress (Cartesian axis) and pressure

          total   stress  (Ry/bohr**3)                   (kbar)     P=      245.93
   0.00167180   0.00000000   0.00000000          245.93        0.00        0.00
   0.00000000   0.00167180   0.00000000            0.00      245.93        0.00
   0.00000000   0.00000000   0.00167180            0.00        0.00      245.93

     kinetic stress (kbar)  48294.47      0.00      0.00
                                0.00  48294.47      0.00
                                0.00      0.00  48294.47

     local   stress (kbar)  19395.90      0.00      0.00
                                0.00  19395.90     -0.00
                                0.00     -0.00  19395.90

     nonloc. stress (kbar)  -1033.02      0.00      0.00
                                0.00  -1033.02      0.00
                                0.00      0.00  -1033.02

     hartree stress (kbar)  76934.84     -0.00     -0.00
                               -0.00  76934.84      0.00
                               -0.00      0.00  76934.84

     exc-cor stress (kbar) -19551.95      0.00      0.00
                                0.00 -19551.95      0.00
                                0.00      0.00 -19551.95

     corecor stress (kbar)   -537.52      0.00      0.00
                                0.00   -537.52      0.00
                                0.00      0.00   -537.52

     ewald   stress (kbar)-123256.80     -0.00      0.00
                               -0.00-123256.80      0.00
                                0.00      0.00-123256.80

     hubbard stress (kbar)      0.00      0.00      0.00
                                0.00      0.00      0.00
                                0.00      0.00      0.00

     DFT-D   stress (kbar)      0.00      0.00      0.00
                                0.00      0.00      0.00
                                0.00      0.00      0.00

     XDM     stress (kbar)      0.00      0.00      0.00
                                0.00      0.00      0.00
                                0.00      0.00      0.00

     dft-nl  stress (kbar)      0.00      0.00      0.00
                                0.00      0.00      0.00
                                0.00      0.00      0.00

     TS-vdW  stress (kbar)      0.00      0.00      0.00
                                0.00      0.00      0.00
                                0.00      0.00      0.00

     MDB     stress (kbar)      0.00      0.00      0.00
                                0.00      0.00      0.00
                                0.00      0.00      0.00

     3D-RISM stress (kbar)      0.00      0.00      0.00
                                0.00      0.00      0.00
                                0.00      0.00      0.00


     Writing all to output data dir ./temp_cubic/aiida.save/ :
     XML data file, charge density, pseudopotentials, collected wavefunctions

     init_run     :     92.38s CPU      4.11s WALL (       1 calls)
     electrons    :   3563.21s CPU    152.76s WALL (       1 calls)
     forces       :     19.04s CPU      0.82s WALL (       1 calls)
     stress       :     28.90s CPU      1.44s WALL (       1 calls)

     Called by init_run:
     wfcinit      :     86.94s CPU      3.65s WALL (       1 calls)
     wfcinit:atom :      2.16s CPU      0.09s WALL (      84 calls)
     wfcinit:wfcr :     82.47s CPU      3.44s WALL (      84 calls)
     potinit      :      2.24s CPU      0.12s WALL (       1 calls)
     hinit0       :      2.14s CPU      0.27s WALL (       1 calls)

     Called by electrons:
     c_bands      :   3023.42s CPU    129.15s WALL (       8 calls)
     sum_band     :    517.14s CPU     22.49s WALL (       8 calls)
     v_of_rho     :      2.65s CPU      0.13s WALL (       9 calls)
     v_h          :      0.56s CPU      0.03s WALL (       9 calls)
     v_xc         :      2.29s CPU      0.11s WALL (      11 calls)
     newd         :      6.16s CPU      0.40s WALL (       9 calls)
     PAW_pot      :     14.55s CPU      0.62s WALL (       9 calls)
     mix_rho      :      1.07s CPU      0.05s WALL (       8 calls)

     Called by c_bands:
     init_us_2    :     32.04s CPU      1.53s WALL (    1596 calls)
     cegterg      :   2938.84s CPU    125.45s WALL (     672 calls)

     Called by sum_band:
     sum_band:wei :      0.67s CPU      0.01s WALL (       8 calls)
     sum_band:loo :    513.00s CPU     22.05s WALL (       8 calls)
     sum_band:buf :      0.92s CPU      0.06s WALL (     672 calls)
     sum_band:ini :     12.73s CPU      0.61s WALL (     672 calls)
     sum_band:cal :      8.67s CPU      0.36s WALL (     672 calls)
     sum_band:bec :     24.30s CPU      1.05s WALL (     672 calls)
     addusdens    :      3.29s CPU      0.38s WALL (       8 calls)
                                        0.00s GPU  (       8 calls)
     addusd:skk   :      0.00s CPU      0.00s WALL (      16 calls)
                                        0.00s GPU  (      16 calls)

     Called by *egterg:
     cdiaghg      :     15.22s CPU      0.62s WALL (    2153 calls)
     cegterg:over :     30.53s CPU      1.13s WALL (    1481 calls)
     cegterg:upda :     52.01s CPU      2.20s WALL (    1481 calls)
     cegterg:last :     39.77s CPU      1.62s WALL (    1274 calls)
     h_psi        :   2698.10s CPU    115.08s WALL (    2237 calls)
     s_psi        :     20.02s CPU      0.92s WALL (    2237 calls)
     g_psi        :     48.40s CPU      2.07s WALL (    1481 calls)

     Called by h_psi:
     h_psi:calbec :     19.09s CPU      0.83s WALL (    2237 calls)
     vloc_psi     :   2577.21s CPU    110.09s WALL (    2237 calls)
     add_vuspsi   :     23.62s CPU      0.91s WALL (    2237 calls)

     General routines
     calbec       :     32.03s CPU      1.40s WALL (    3329 calls)
     fft          :      0.85s CPU      0.05s WALL (     140 calls)
     ffts         :      0.23s CPU      0.00s WALL (      17 calls)
     fftw         :    132.38s CPU      6.18s WALL (   67250 calls)
     interpolate  :      0.23s CPU      0.00s WALL (       9 calls)

     Parallel routines

     PAW routines
     PAW_pot      :     14.55s CPU      0.62s WALL (       9 calls)
     PAW_symme    :      0.00s CPU      0.00s WALL (      17 calls)

     PWSCF        :      1h 2m CPU   2m41.56s WALL


   This run was terminated on:  21:28:37   7Jun2024            

=------------------------------------------------------------------------------=
   JOB DONE.
=------------------------------------------------------------------------------=
