
     Program PWSCF v.7.3.1 starts on  7Jun2024 at 23:36:14 

     This program is part of the open-source Quantum ESPRESSO suite
     for quantum simulation of materials; please cite
         "P. Giannozzi et al., J. Phys.:Condens. Matter 21 395502 (2009);
         "P. Giannozzi et al., J. Phys.:Condens. Matter 29 465901 (2017);
         "P. Giannozzi et al., J. Chem. Phys. 152 154105 (2020);
          URL http://www.quantum-espresso.org", 
     in publications or presentations arising from this work. More details at
     http://www.quantum-espresso.org/quote

     Parallel version (MPI & OpenMP), running on      24 processor cores
     Number of MPI processes:                 1
     Threads/MPI process:                    24

     MPI processes distributed on     1 nodes
     4326 MiB available memory on the printing compute node when the environment starts

     Waiting for input...
     Reading input from standard input

     Current dimensions of program PWSCF are:
     Max number of different atomic species (ntypx) = 10
     Max number of k-points (npk) =  40000
     Max angular momentum in pseudopotentials (lmaxx) =  4
     file O.pbe-n-kjpaw_psl.0.1.UPF: wavefunction(s)  2P renormalized
     Message from routine setup:
     using ibrav=0 with symmetry is DISCOURAGED, use correct ibrav instead

     Subspace diagonalization in iterative solution of the eigenvalue problem:
     a serial algorithm will be used


     G-vector sticks info
     --------------------
     sticks:   dense  smooth     PW     G-vecs:    dense   smooth      PW
     Sum         593     293    101                11019     3887     751

     Using Slab Decomposition



     bravais-lattice index     =            0
     lattice parameter (alat)  =       4.3238  a.u.
     unit-cell volume          =      80.8368 (a.u.)^3
     number of atoms/cell      =            2
     number of atomic types    =            2
     number of electrons       =        26.00
     number of Kohn-Sham states=           17
     kinetic-energy cutoff     =      50.0000  Ry
     charge density cutoff     =     400.0000  Ry
     scf convergence threshold =      1.0E-08
     mixing beta               =       0.4000
     number of iterations used =            8  plain     mixing
     Exchange-correlation= SLA  PW   PBE  PBE
                           (   1   4   3   4   0   0   0)

     celldm(1)=   4.323840  celldm(2)=   0.000000  celldm(3)=   0.000000
     celldm(4)=   0.000000  celldm(5)=   0.000000  celldm(6)=   0.000000

     crystal axes: (cart. coord. in units of alat)
               a(1) = (   1.000000   0.000000   0.000000 )  
               a(2) = (   0.000000   1.000000   0.000000 )  
               a(3) = (   0.000000   0.000000   1.000000 )  

     reciprocal axes: (cart. coord. in units 2 pi/alat)
               b(1) = (  1.000000  0.000000  0.000000 )  
               b(2) = (  0.000000  1.000000  0.000000 )  
               b(3) = (  0.000000  0.000000  1.000000 )  


     PseudoPot. # 1 for O  read from file:
     ../SSSP_1.3.0_PBE_efficiency/O.pbe-n-kjpaw_psl.0.1.UPF
     MD5 check sum: 0234752ac141de4415c5fc33072bef88
     Pseudo is Projector augmented-wave + core cor, Zval =  6.0
     Generated using "atomic" code by A. Dal Corso  v.5.0.99 svn rev. 10869
     Shape of augmentation charge: BESSEL
     Using radial grid of 1095 points,  4 beta functions with: 
                l(1) =   0
                l(2) =   0
                l(3) =   1
                l(4) =   1
     Q(r) pseudized with 0 coefficients 


     PseudoPot. # 2 for Zn read from file:
     ../SSSP_1.3.0_PBE_efficiency/Zn_pbe_v1.uspp.F.UPF
     MD5 check sum: df62231357ef9e81f77b2b3087fa5675
     Pseudo is Ultrasoft, Zval = 20.0
     Generated by new atomic code, or converted to UPF format
     Using radial grid of  943 points,  6 beta functions with: 
                l(1) =   0
                l(2) =   0
                l(3) =   1
                l(4) =   1
                l(5) =   2
                l(6) =   2
     Q(r) pseudized with  8 coefficients,  rinner =    1.100   1.100   1.100
                                                       1.100   1.100

     atomic species   valence    mass     pseudopotential
     O                 6.00    15.99940     O ( 1.00)
     Zn               20.00    65.38000     Zn( 1.00)

     48 Sym. Ops., with inversion, found


                                    s                        frac. trans.

      isym =  1     identity                                     

 cryst.   s( 1) = (     1          0          0      )
                  (     0          1          0      )
                  (     0          0          1      )

 cart.    s( 1) = (  1.0000000  0.0000000  0.0000000 )
                  (  0.0000000  1.0000000  0.0000000 )
                  (  0.0000000  0.0000000  1.0000000 )


      isym =  2     180 deg rotation - cart. axis [0,0,1]        

 cryst.   s( 2) = (    -1          0          0      )
                  (     0         -1          0      )
                  (     0          0          1      )

 cart.    s( 2) = ( -1.0000000  0.0000000  0.0000000 )
                  (  0.0000000 -1.0000000  0.0000000 )
                  (  0.0000000  0.0000000  1.0000000 )


      isym =  3     180 deg rotation - cart. axis [0,1,0]        

 cryst.   s( 3) = (    -1          0          0      )
                  (     0          1          0      )
                  (     0          0         -1      )

 cart.    s( 3) = ( -1.0000000  0.0000000  0.0000000 )
                  (  0.0000000  1.0000000  0.0000000 )
                  (  0.0000000  0.0000000 -1.0000000 )


      isym =  4     180 deg rotation - cart. axis [1,0,0]        

 cryst.   s( 4) = (     1          0          0      )
                  (     0         -1          0      )
                  (     0          0         -1      )

 cart.    s( 4) = (  1.0000000  0.0000000  0.0000000 )
                  (  0.0000000 -1.0000000  0.0000000 )
                  (  0.0000000  0.0000000 -1.0000000 )


      isym =  5     180 deg rotation - cart. axis [1,1,0]        

 cryst.   s( 5) = (     0          1          0      )
                  (     1          0          0      )
                  (     0          0         -1      )

 cart.    s( 5) = (  0.0000000  1.0000000  0.0000000 )
                  (  1.0000000  0.0000000  0.0000000 )
                  (  0.0000000  0.0000000 -1.0000000 )


      isym =  6     180 deg rotation - cart. axis [1,-1,0]       

 cryst.   s( 6) = (     0         -1          0      )
                  (    -1          0          0      )
                  (     0          0         -1      )

 cart.    s( 6) = (  0.0000000 -1.0000000  0.0000000 )
                  ( -1.0000000  0.0000000  0.0000000 )
                  (  0.0000000  0.0000000 -1.0000000 )


      isym =  7      90 deg rotation - cart. axis [0,0,-1]       

 cryst.   s( 7) = (     0         -1          0      )
                  (     1          0          0      )
                  (     0          0          1      )

 cart.    s( 7) = (  0.0000000  1.0000000  0.0000000 )
                  ( -1.0000000  0.0000000  0.0000000 )
                  (  0.0000000  0.0000000  1.0000000 )


      isym =  8      90 deg rotation - cart. axis [0,0,1]        

 cryst.   s( 8) = (     0          1          0      )
                  (    -1          0          0      )
                  (     0          0          1      )

 cart.    s( 8) = (  0.0000000 -1.0000000  0.0000000 )
                  (  1.0000000  0.0000000  0.0000000 )
                  (  0.0000000  0.0000000  1.0000000 )


      isym =  9     180 deg rotation - cart. axis [1,0,1]        

 cryst.   s( 9) = (     0          0          1      )
                  (     0         -1          0      )
                  (     1          0          0      )

 cart.    s( 9) = (  0.0000000  0.0000000  1.0000000 )
                  (  0.0000000 -1.0000000  0.0000000 )
                  (  1.0000000  0.0000000  0.0000000 )


      isym = 10     180 deg rotation - cart. axis [-1,0,1]       

 cryst.   s(10) = (     0          0         -1      )
                  (     0         -1          0      )
                  (    -1          0          0      )

 cart.    s(10) = (  0.0000000  0.0000000 -1.0000000 )
                  (  0.0000000 -1.0000000  0.0000000 )
                  ( -1.0000000  0.0000000  0.0000000 )


      isym = 11      90 deg rotation - cart. axis [0,1,0]        

 cryst.   s(11) = (     0          0         -1      )
                  (     0          1          0      )
                  (     1          0          0      )

 cart.    s(11) = (  0.0000000  0.0000000  1.0000000 )
                  (  0.0000000  1.0000000  0.0000000 )
                  ( -1.0000000  0.0000000  0.0000000 )


      isym = 12      90 deg rotation - cart. axis [0,-1,0]       

 cryst.   s(12) = (     0          0          1      )
                  (     0          1          0      )
                  (    -1          0          0      )

 cart.    s(12) = (  0.0000000  0.0000000 -1.0000000 )
                  (  0.0000000  1.0000000  0.0000000 )
                  (  1.0000000  0.0000000  0.0000000 )


      isym = 13     180 deg rotation - cart. axis [0,1,1]        

 cryst.   s(13) = (    -1          0          0      )
                  (     0          0          1      )
                  (     0          1          0      )

 cart.    s(13) = ( -1.0000000  0.0000000  0.0000000 )
                  (  0.0000000  0.0000000  1.0000000 )
                  (  0.0000000  1.0000000  0.0000000 )


      isym = 14     180 deg rotation - cart. axis [0,1,-1]       

 cryst.   s(14) = (    -1          0          0      )
                  (     0          0         -1      )
                  (     0         -1          0      )

 cart.    s(14) = ( -1.0000000  0.0000000  0.0000000 )
                  (  0.0000000  0.0000000 -1.0000000 )
                  (  0.0000000 -1.0000000  0.0000000 )


      isym = 15      90 deg rotation - cart. axis [-1,0,0]       

 cryst.   s(15) = (     1          0          0      )
                  (     0          0         -1      )
                  (     0          1          0      )

 cart.    s(15) = (  1.0000000  0.0000000  0.0000000 )
                  (  0.0000000  0.0000000  1.0000000 )
                  (  0.0000000 -1.0000000  0.0000000 )


      isym = 16      90 deg rotation - cart. axis [1,0,0]        

 cryst.   s(16) = (     1          0          0      )
                  (     0          0          1      )
                  (     0         -1          0      )

 cart.    s(16) = (  1.0000000  0.0000000  0.0000000 )
                  (  0.0000000  0.0000000 -1.0000000 )
                  (  0.0000000  1.0000000  0.0000000 )


      isym = 17     120 deg rotation - cart. axis [-1,-1,-1]     

 cryst.   s(17) = (     0          0          1      )
                  (     1          0          0      )
                  (     0          1          0      )

 cart.    s(17) = (  0.0000000  1.0000000  0.0000000 )
                  (  0.0000000  0.0000000  1.0000000 )
                  (  1.0000000  0.0000000  0.0000000 )


      isym = 18     120 deg rotation - cart. axis [-1,1,1]       

 cryst.   s(18) = (     0          0         -1      )
                  (    -1          0          0      )
                  (     0          1          0      )

 cart.    s(18) = (  0.0000000 -1.0000000  0.0000000 )
                  (  0.0000000  0.0000000  1.0000000 )
                  ( -1.0000000  0.0000000  0.0000000 )


      isym = 19     120 deg rotation - cart. axis [1,1,-1]       

 cryst.   s(19) = (     0          0         -1      )
                  (     1          0          0      )
                  (     0         -1          0      )

 cart.    s(19) = (  0.0000000  1.0000000  0.0000000 )
                  (  0.0000000  0.0000000 -1.0000000 )
                  ( -1.0000000  0.0000000  0.0000000 )


      isym = 20     120 deg rotation - cart. axis [1,-1,1]       

 cryst.   s(20) = (     0          0          1      )
                  (    -1          0          0      )
                  (     0         -1          0      )

 cart.    s(20) = (  0.0000000 -1.0000000  0.0000000 )
                  (  0.0000000  0.0000000 -1.0000000 )
                  (  1.0000000  0.0000000  0.0000000 )


      isym = 21     120 deg rotation - cart. axis [1,1,1]        

 cryst.   s(21) = (     0          1          0      )
                  (     0          0          1      )
                  (     1          0          0      )

 cart.    s(21) = (  0.0000000  0.0000000  1.0000000 )
                  (  1.0000000  0.0000000  0.0000000 )
                  (  0.0000000  1.0000000  0.0000000 )


      isym = 22     120 deg rotation - cart. axis [-1,1,-1]      

 cryst.   s(22) = (     0         -1          0      )
                  (     0          0         -1      )
                  (     1          0          0      )

 cart.    s(22) = (  0.0000000  0.0000000  1.0000000 )
                  ( -1.0000000  0.0000000  0.0000000 )
                  (  0.0000000 -1.0000000  0.0000000 )


      isym = 23     120 deg rotation - cart. axis [1,-1,-1]      

 cryst.   s(23) = (     0         -1          0      )
                  (     0          0          1      )
                  (    -1          0          0      )

 cart.    s(23) = (  0.0000000  0.0000000 -1.0000000 )
                  ( -1.0000000  0.0000000  0.0000000 )
                  (  0.0000000  1.0000000  0.0000000 )


      isym = 24     120 deg rotation - cart. axis [-1,-1,1]      

 cryst.   s(24) = (     0          1          0      )
                  (     0          0         -1      )
                  (    -1          0          0      )

 cart.    s(24) = (  0.0000000  0.0000000 -1.0000000 )
                  (  1.0000000  0.0000000  0.0000000 )
                  (  0.0000000 -1.0000000  0.0000000 )


      isym = 25     inversion                                    

 cryst.   s(25) = (    -1          0          0      )
                  (     0         -1          0      )
                  (     0          0         -1      )

 cart.    s(25) = ( -1.0000000  0.0000000  0.0000000 )
                  (  0.0000000 -1.0000000  0.0000000 )
                  (  0.0000000  0.0000000 -1.0000000 )


      isym = 26     inv. 180 deg rotation - cart. axis [0,0,1]   

 cryst.   s(26) = (     1          0          0      )
                  (     0          1          0      )
                  (     0          0         -1      )

 cart.    s(26) = (  1.0000000  0.0000000  0.0000000 )
                  (  0.0000000  1.0000000  0.0000000 )
                  (  0.0000000  0.0000000 -1.0000000 )


      isym = 27     inv. 180 deg rotation - cart. axis [0,1,0]   

 cryst.   s(27) = (     1          0          0      )
                  (     0         -1          0      )
                  (     0          0          1      )

 cart.    s(27) = (  1.0000000  0.0000000  0.0000000 )
                  (  0.0000000 -1.0000000  0.0000000 )
                  (  0.0000000  0.0000000  1.0000000 )


      isym = 28     inv. 180 deg rotation - cart. axis [1,0,0]   

 cryst.   s(28) = (    -1          0          0      )
                  (     0          1          0      )
                  (     0          0          1      )

 cart.    s(28) = ( -1.0000000  0.0000000  0.0000000 )
                  (  0.0000000  1.0000000  0.0000000 )
                  (  0.0000000  0.0000000  1.0000000 )


      isym = 29     inv. 180 deg rotation - cart. axis [1,1,0]   

 cryst.   s(29) = (     0         -1          0      )
                  (    -1          0          0      )
                  (     0          0          1      )

 cart.    s(29) = (  0.0000000 -1.0000000  0.0000000 )
                  ( -1.0000000  0.0000000  0.0000000 )
                  (  0.0000000  0.0000000  1.0000000 )


      isym = 30     inv. 180 deg rotation - cart. axis [1,-1,0]  

 cryst.   s(30) = (     0          1          0      )
                  (     1          0          0      )
                  (     0          0          1      )

 cart.    s(30) = (  0.0000000  1.0000000  0.0000000 )
                  (  1.0000000  0.0000000  0.0000000 )
                  (  0.0000000  0.0000000  1.0000000 )


      isym = 31     inv.  90 deg rotation - cart. axis [0,0,-1]  

 cryst.   s(31) = (     0          1          0      )
                  (    -1          0          0      )
                  (     0          0         -1      )

 cart.    s(31) = (  0.0000000 -1.0000000  0.0000000 )
                  (  1.0000000  0.0000000  0.0000000 )
                  (  0.0000000  0.0000000 -1.0000000 )


      isym = 32     inv.  90 deg rotation - cart. axis [0,0,1]   

 cryst.   s(32) = (     0         -1          0      )
                  (     1          0          0      )
                  (     0          0         -1      )

 cart.    s(32) = (  0.0000000  1.0000000  0.0000000 )
                  ( -1.0000000  0.0000000  0.0000000 )
                  (  0.0000000  0.0000000 -1.0000000 )


      isym = 33     inv. 180 deg rotation - cart. axis [1,0,1]   

 cryst.   s(33) = (     0          0         -1      )
                  (     0          1          0      )
                  (    -1          0          0      )

 cart.    s(33) = (  0.0000000  0.0000000 -1.0000000 )
                  (  0.0000000  1.0000000  0.0000000 )
                  ( -1.0000000  0.0000000  0.0000000 )


      isym = 34     inv. 180 deg rotation - cart. axis [-1,0,1]  

 cryst.   s(34) = (     0          0          1      )
                  (     0          1          0      )
                  (     1          0          0      )

 cart.    s(34) = (  0.0000000  0.0000000  1.0000000 )
                  (  0.0000000  1.0000000  0.0000000 )
                  (  1.0000000  0.0000000  0.0000000 )


      isym = 35     inv.  90 deg rotation - cart. axis [0,1,0]   

 cryst.   s(35) = (     0          0          1      )
                  (     0         -1          0      )
                  (    -1          0          0      )

 cart.    s(35) = (  0.0000000  0.0000000 -1.0000000 )
                  (  0.0000000 -1.0000000  0.0000000 )
                  (  1.0000000  0.0000000  0.0000000 )


      isym = 36     inv.  90 deg rotation - cart. axis [0,-1,0]  

 cryst.   s(36) = (     0          0         -1      )
                  (     0         -1          0      )
                  (     1          0          0      )

 cart.    s(36) = (  0.0000000  0.0000000  1.0000000 )
                  (  0.0000000 -1.0000000  0.0000000 )
                  ( -1.0000000  0.0000000  0.0000000 )


      isym = 37     inv. 180 deg rotation - cart. axis [0,1,1]   

 cryst.   s(37) = (     1          0          0      )
                  (     0          0         -1      )
                  (     0         -1          0      )

 cart.    s(37) = (  1.0000000  0.0000000  0.0000000 )
                  (  0.0000000  0.0000000 -1.0000000 )
                  (  0.0000000 -1.0000000  0.0000000 )


      isym = 38     inv. 180 deg rotation - cart. axis [0,1,-1]  

 cryst.   s(38) = (     1          0          0      )
                  (     0          0          1      )
                  (     0          1          0      )

 cart.    s(38) = (  1.0000000  0.0000000  0.0000000 )
                  (  0.0000000  0.0000000  1.0000000 )
                  (  0.0000000  1.0000000  0.0000000 )


      isym = 39     inv.  90 deg rotation - cart. axis [-1,0,0]  

 cryst.   s(39) = (    -1          0          0      )
                  (     0          0          1      )
                  (     0         -1          0      )

 cart.    s(39) = ( -1.0000000  0.0000000  0.0000000 )
                  (  0.0000000  0.0000000 -1.0000000 )
                  (  0.0000000  1.0000000  0.0000000 )


      isym = 40     inv.  90 deg rotation - cart. axis [1,0,0]   

 cryst.   s(40) = (    -1          0          0      )
                  (     0          0         -1      )
                  (     0          1          0      )

 cart.    s(40) = ( -1.0000000  0.0000000  0.0000000 )
                  (  0.0000000  0.0000000  1.0000000 )
                  (  0.0000000 -1.0000000  0.0000000 )


      isym = 41     inv. 120 deg rotation - cart. axis [-1,-1,-1]

 cryst.   s(41) = (     0          0         -1      )
                  (    -1          0          0      )
                  (     0         -1          0      )

 cart.    s(41) = (  0.0000000 -1.0000000  0.0000000 )
                  (  0.0000000  0.0000000 -1.0000000 )
                  ( -1.0000000  0.0000000  0.0000000 )


      isym = 42     inv. 120 deg rotation - cart. axis [-1,1,1]  

 cryst.   s(42) = (     0          0          1      )
                  (     1          0          0      )
                  (     0         -1          0      )

 cart.    s(42) = (  0.0000000  1.0000000  0.0000000 )
                  (  0.0000000  0.0000000 -1.0000000 )
                  (  1.0000000  0.0000000  0.0000000 )


      isym = 43     inv. 120 deg rotation - cart. axis [1,1,-1]  

 cryst.   s(43) = (     0          0          1      )
                  (    -1          0          0      )
                  (     0          1          0      )

 cart.    s(43) = (  0.0000000 -1.0000000  0.0000000 )
                  (  0.0000000  0.0000000  1.0000000 )
                  (  1.0000000  0.0000000  0.0000000 )


      isym = 44     inv. 120 deg rotation - cart. axis [1,-1,1]  

 cryst.   s(44) = (     0          0         -1      )
                  (     1          0          0      )
                  (     0          1          0      )

 cart.    s(44) = (  0.0000000  1.0000000  0.0000000 )
                  (  0.0000000  0.0000000  1.0000000 )
                  ( -1.0000000  0.0000000  0.0000000 )


      isym = 45     inv. 120 deg rotation - cart. axis [1,1,1]   

 cryst.   s(45) = (     0         -1          0      )
                  (     0          0         -1      )
                  (    -1          0          0      )

 cart.    s(45) = (  0.0000000  0.0000000 -1.0000000 )
                  ( -1.0000000  0.0000000  0.0000000 )
                  (  0.0000000 -1.0000000  0.0000000 )


      isym = 46     inv. 120 deg rotation - cart. axis [-1,1,-1] 

 cryst.   s(46) = (     0          1          0      )
                  (     0          0          1      )
                  (    -1          0          0      )

 cart.    s(46) = (  0.0000000  0.0000000 -1.0000000 )
                  (  1.0000000  0.0000000  0.0000000 )
                  (  0.0000000  1.0000000  0.0000000 )


      isym = 47     inv. 120 deg rotation - cart. axis [1,-1,-1] 

 cryst.   s(47) = (     0          1          0      )
                  (     0          0         -1      )
                  (     1          0          0      )

 cart.    s(47) = (  0.0000000  0.0000000  1.0000000 )
                  (  1.0000000  0.0000000  0.0000000 )
                  (  0.0000000 -1.0000000  0.0000000 )


      isym = 48     inv. 120 deg rotation - cart. axis [-1,-1,1] 

 cryst.   s(48) = (     0         -1          0      )
                  (     0          0          1      )
                  (     1          0          0      )

 cart.    s(48) = (  0.0000000  0.0000000  1.0000000 )
                  ( -1.0000000  0.0000000  0.0000000 )
                  (  0.0000000  1.0000000  0.0000000 )


   Cartesian axes

     site n.     atom                  positions (alat units)
         1        Zn     tau(   1) = (   0.0000000   0.0000000   0.0000000  )
         2        O      tau(   2) = (   0.5000000   0.5000000   0.5000000  )

   Crystallographic axes

     site n.     atom                  positions (cryst. coord.)
         1        Zn     tau(   1) = (  0.0000000  0.0000000  0.0000000  )
         2        O      tau(   2) = (  0.5000000  0.5000000  0.5000000  )

     number of k points=    84  Marzari-Vanderbilt smearing, width (Ry)=  0.0147
                       cart. coord. in units 2pi/alat
        k(    1) = (   0.0000000   0.0000000   0.0000000), wk =   0.0011574
        k(    2) = (   0.0000000   0.0000000   0.0833333), wk =   0.0069444
        k(    3) = (   0.0000000   0.0000000   0.1666667), wk =   0.0069444
        k(    4) = (   0.0000000   0.0000000   0.2500000), wk =   0.0069444
        k(    5) = (   0.0000000   0.0000000   0.3333333), wk =   0.0069444
        k(    6) = (   0.0000000   0.0000000   0.4166667), wk =   0.0069444
        k(    7) = (   0.0000000   0.0000000  -0.5000000), wk =   0.0034722
        k(    8) = (   0.0000000   0.0833333   0.0833333), wk =   0.0138889
        k(    9) = (   0.0000000   0.0833333   0.1666667), wk =   0.0277778
        k(   10) = (   0.0000000   0.0833333   0.2500000), wk =   0.0277778
        k(   11) = (   0.0000000   0.0833333   0.3333333), wk =   0.0277778
        k(   12) = (   0.0000000   0.0833333   0.4166667), wk =   0.0277778
        k(   13) = (   0.0000000   0.0833333  -0.5000000), wk =   0.0138889
        k(   14) = (   0.0000000   0.1666667   0.1666667), wk =   0.0138889
        k(   15) = (   0.0000000   0.1666667   0.2500000), wk =   0.0277778
        k(   16) = (   0.0000000   0.1666667   0.3333333), wk =   0.0277778
        k(   17) = (   0.0000000   0.1666667   0.4166667), wk =   0.0277778
        k(   18) = (   0.0000000   0.1666667  -0.5000000), wk =   0.0138889
        k(   19) = (   0.0000000   0.2500000   0.2500000), wk =   0.0138889
        k(   20) = (   0.0000000   0.2500000   0.3333333), wk =   0.0277778
        k(   21) = (   0.0000000   0.2500000   0.4166667), wk =   0.0277778
        k(   22) = (   0.0000000   0.2500000  -0.5000000), wk =   0.0138889
        k(   23) = (   0.0000000   0.3333333   0.3333333), wk =   0.0138889
        k(   24) = (   0.0000000   0.3333333   0.4166667), wk =   0.0277778
        k(   25) = (   0.0000000   0.3333333  -0.5000000), wk =   0.0138889
        k(   26) = (   0.0000000   0.4166667   0.4166667), wk =   0.0138889
        k(   27) = (   0.0000000   0.4166667  -0.5000000), wk =   0.0138889
        k(   28) = (   0.0000000  -0.5000000  -0.5000000), wk =   0.0034722
        k(   29) = (   0.0833333   0.0833333   0.0833333), wk =   0.0092593
        k(   30) = (   0.0833333   0.0833333   0.1666667), wk =   0.0277778
        k(   31) = (   0.0833333   0.0833333   0.2500000), wk =   0.0277778
        k(   32) = (   0.0833333   0.0833333   0.3333333), wk =   0.0277778
        k(   33) = (   0.0833333   0.0833333   0.4166667), wk =   0.0277778
        k(   34) = (   0.0833333   0.0833333  -0.5000000), wk =   0.0138889
        k(   35) = (   0.0833333   0.1666667   0.1666667), wk =   0.0277778
        k(   36) = (   0.0833333   0.1666667   0.2500000), wk =   0.0555556
        k(   37) = (   0.0833333   0.1666667   0.3333333), wk =   0.0555556
        k(   38) = (   0.0833333   0.1666667   0.4166667), wk =   0.0555556
        k(   39) = (   0.0833333   0.1666667  -0.5000000), wk =   0.0277778
        k(   40) = (   0.0833333   0.2500000   0.2500000), wk =   0.0277778
        k(   41) = (   0.0833333   0.2500000   0.3333333), wk =   0.0555556
        k(   42) = (   0.0833333   0.2500000   0.4166667), wk =   0.0555556
        k(   43) = (   0.0833333   0.2500000  -0.5000000), wk =   0.0277778
        k(   44) = (   0.0833333   0.3333333   0.3333333), wk =   0.0277778
        k(   45) = (   0.0833333   0.3333333   0.4166667), wk =   0.0555556
        k(   46) = (   0.0833333   0.3333333  -0.5000000), wk =   0.0277778
        k(   47) = (   0.0833333   0.4166667   0.4166667), wk =   0.0277778
        k(   48) = (   0.0833333   0.4166667  -0.5000000), wk =   0.0277778
        k(   49) = (   0.0833333  -0.5000000  -0.5000000), wk =   0.0069444
        k(   50) = (   0.1666667   0.1666667   0.1666667), wk =   0.0092593
        k(   51) = (   0.1666667   0.1666667   0.2500000), wk =   0.0277778
        k(   52) = (   0.1666667   0.1666667   0.3333333), wk =   0.0277778
        k(   53) = (   0.1666667   0.1666667   0.4166667), wk =   0.0277778
        k(   54) = (   0.1666667   0.1666667  -0.5000000), wk =   0.0138889
        k(   55) = (   0.1666667   0.2500000   0.2500000), wk =   0.0277778
        k(   56) = (   0.1666667   0.2500000   0.3333333), wk =   0.0555556
        k(   57) = (   0.1666667   0.2500000   0.4166667), wk =   0.0555556
        k(   58) = (   0.1666667   0.2500000  -0.5000000), wk =   0.0277778
        k(   59) = (   0.1666667   0.3333333   0.3333333), wk =   0.0277778
        k(   60) = (   0.1666667   0.3333333   0.4166667), wk =   0.0555556
        k(   61) = (   0.1666667   0.3333333  -0.5000000), wk =   0.0277778
        k(   62) = (   0.1666667   0.4166667   0.4166667), wk =   0.0277778
        k(   63) = (   0.1666667   0.4166667  -0.5000000), wk =   0.0277778
        k(   64) = (   0.1666667  -0.5000000  -0.5000000), wk =   0.0069444
        k(   65) = (   0.2500000   0.2500000   0.2500000), wk =   0.0092593
        k(   66) = (   0.2500000   0.2500000   0.3333333), wk =   0.0277778
        k(   67) = (   0.2500000   0.2500000   0.4166667), wk =   0.0277778
        k(   68) = (   0.2500000   0.2500000  -0.5000000), wk =   0.0138889
        k(   69) = (   0.2500000   0.3333333   0.3333333), wk =   0.0277778
        k(   70) = (   0.2500000   0.3333333   0.4166667), wk =   0.0555556
        k(   71) = (   0.2500000   0.3333333  -0.5000000), wk =   0.0277778
        k(   72) = (   0.2500000   0.4166667   0.4166667), wk =   0.0277778
        k(   73) = (   0.2500000   0.4166667  -0.5000000), wk =   0.0277778
        k(   74) = (   0.2500000  -0.5000000  -0.5000000), wk =   0.0069444
        k(   75) = (   0.3333333   0.3333333   0.3333333), wk =   0.0092593
        k(   76) = (   0.3333333   0.3333333   0.4166667), wk =   0.0277778
        k(   77) = (   0.3333333   0.3333333  -0.5000000), wk =   0.0138889
        k(   78) = (   0.3333333   0.4166667   0.4166667), wk =   0.0277778
        k(   79) = (   0.3333333   0.4166667  -0.5000000), wk =   0.0277778
        k(   80) = (   0.3333333  -0.5000000  -0.5000000), wk =   0.0069444
        k(   81) = (   0.4166667   0.4166667   0.4166667), wk =   0.0092593
        k(   82) = (   0.4166667   0.4166667  -0.5000000), wk =   0.0138889
        k(   83) = (   0.4166667  -0.5000000  -0.5000000), wk =   0.0069444
        k(   84) = (  -0.5000000  -0.5000000  -0.5000000), wk =   0.0011574

                       cryst. coord.
        k(    1) = (   0.0000000   0.0000000   0.0000000), wk =   0.0011574
        k(    2) = (   0.0000000   0.0000000   0.0833333), wk =   0.0069444
        k(    3) = (   0.0000000   0.0000000   0.1666667), wk =   0.0069444
        k(    4) = (   0.0000000   0.0000000   0.2500000), wk =   0.0069444
        k(    5) = (   0.0000000   0.0000000   0.3333333), wk =   0.0069444
        k(    6) = (   0.0000000   0.0000000   0.4166667), wk =   0.0069444
        k(    7) = (   0.0000000   0.0000000  -0.5000000), wk =   0.0034722
        k(    8) = (   0.0000000   0.0833333   0.0833333), wk =   0.0138889
        k(    9) = (   0.0000000   0.0833333   0.1666667), wk =   0.0277778
        k(   10) = (   0.0000000   0.0833333   0.2500000), wk =   0.0277778
        k(   11) = (   0.0000000   0.0833333   0.3333333), wk =   0.0277778
        k(   12) = (   0.0000000   0.0833333   0.4166667), wk =   0.0277778
        k(   13) = (   0.0000000   0.0833333  -0.5000000), wk =   0.0138889
        k(   14) = (   0.0000000   0.1666667   0.1666667), wk =   0.0138889
        k(   15) = (   0.0000000   0.1666667   0.2500000), wk =   0.0277778
        k(   16) = (   0.0000000   0.1666667   0.3333333), wk =   0.0277778
        k(   17) = (   0.0000000   0.1666667   0.4166667), wk =   0.0277778
        k(   18) = (   0.0000000   0.1666667  -0.5000000), wk =   0.0138889
        k(   19) = (   0.0000000   0.2500000   0.2500000), wk =   0.0138889
        k(   20) = (   0.0000000   0.2500000   0.3333333), wk =   0.0277778
        k(   21) = (   0.0000000   0.2500000   0.4166667), wk =   0.0277778
        k(   22) = (   0.0000000   0.2500000  -0.5000000), wk =   0.0138889
        k(   23) = (   0.0000000   0.3333333   0.3333333), wk =   0.0138889
        k(   24) = (   0.0000000   0.3333333   0.4166667), wk =   0.0277778
        k(   25) = (   0.0000000   0.3333333  -0.5000000), wk =   0.0138889
        k(   26) = (   0.0000000   0.4166667   0.4166667), wk =   0.0138889
        k(   27) = (   0.0000000   0.4166667  -0.5000000), wk =   0.0138889
        k(   28) = (   0.0000000  -0.5000000  -0.5000000), wk =   0.0034722
        k(   29) = (   0.0833333   0.0833333   0.0833333), wk =   0.0092593
        k(   30) = (   0.0833333   0.0833333   0.1666667), wk =   0.0277778
        k(   31) = (   0.0833333   0.0833333   0.2500000), wk =   0.0277778
        k(   32) = (   0.0833333   0.0833333   0.3333333), wk =   0.0277778
        k(   33) = (   0.0833333   0.0833333   0.4166667), wk =   0.0277778
        k(   34) = (   0.0833333   0.0833333  -0.5000000), wk =   0.0138889
        k(   35) = (   0.0833333   0.1666667   0.1666667), wk =   0.0277778
        k(   36) = (   0.0833333   0.1666667   0.2500000), wk =   0.0555556
        k(   37) = (   0.0833333   0.1666667   0.3333333), wk =   0.0555556
        k(   38) = (   0.0833333   0.1666667   0.4166667), wk =   0.0555556
        k(   39) = (   0.0833333   0.1666667  -0.5000000), wk =   0.0277778
        k(   40) = (   0.0833333   0.2500000   0.2500000), wk =   0.0277778
        k(   41) = (   0.0833333   0.2500000   0.3333333), wk =   0.0555556
        k(   42) = (   0.0833333   0.2500000   0.4166667), wk =   0.0555556
        k(   43) = (   0.0833333   0.2500000  -0.5000000), wk =   0.0277778
        k(   44) = (   0.0833333   0.3333333   0.3333333), wk =   0.0277778
        k(   45) = (   0.0833333   0.3333333   0.4166667), wk =   0.0555556
        k(   46) = (   0.0833333   0.3333333  -0.5000000), wk =   0.0277778
        k(   47) = (   0.0833333   0.4166667   0.4166667), wk =   0.0277778
        k(   48) = (   0.0833333   0.4166667  -0.5000000), wk =   0.0277778
        k(   49) = (   0.0833333  -0.5000000  -0.5000000), wk =   0.0069444
        k(   50) = (   0.1666667   0.1666667   0.1666667), wk =   0.0092593
        k(   51) = (   0.1666667   0.1666667   0.2500000), wk =   0.0277778
        k(   52) = (   0.1666667   0.1666667   0.3333333), wk =   0.0277778
        k(   53) = (   0.1666667   0.1666667   0.4166667), wk =   0.0277778
        k(   54) = (   0.1666667   0.1666667  -0.5000000), wk =   0.0138889
        k(   55) = (   0.1666667   0.2500000   0.2500000), wk =   0.0277778
        k(   56) = (   0.1666667   0.2500000   0.3333333), wk =   0.0555556
        k(   57) = (   0.1666667   0.2500000   0.4166667), wk =   0.0555556
        k(   58) = (   0.1666667   0.2500000  -0.5000000), wk =   0.0277778
        k(   59) = (   0.1666667   0.3333333   0.3333333), wk =   0.0277778
        k(   60) = (   0.1666667   0.3333333   0.4166667), wk =   0.0555556
        k(   61) = (   0.1666667   0.3333333  -0.5000000), wk =   0.0277778
        k(   62) = (   0.1666667   0.4166667   0.4166667), wk =   0.0277778
        k(   63) = (   0.1666667   0.4166667  -0.5000000), wk =   0.0277778
        k(   64) = (   0.1666667  -0.5000000  -0.5000000), wk =   0.0069444
        k(   65) = (   0.2500000   0.2500000   0.2500000), wk =   0.0092593
        k(   66) = (   0.2500000   0.2500000   0.3333333), wk =   0.0277778
        k(   67) = (   0.2500000   0.2500000   0.4166667), wk =   0.0277778
        k(   68) = (   0.2500000   0.2500000  -0.5000000), wk =   0.0138889
        k(   69) = (   0.2500000   0.3333333   0.3333333), wk =   0.0277778
        k(   70) = (   0.2500000   0.3333333   0.4166667), wk =   0.0555556
        k(   71) = (   0.2500000   0.3333333  -0.5000000), wk =   0.0277778
        k(   72) = (   0.2500000   0.4166667   0.4166667), wk =   0.0277778
        k(   73) = (   0.2500000   0.4166667  -0.5000000), wk =   0.0277778
        k(   74) = (   0.2500000  -0.5000000  -0.5000000), wk =   0.0069444
        k(   75) = (   0.3333333   0.3333333   0.3333333), wk =   0.0092593
        k(   76) = (   0.3333333   0.3333333   0.4166667), wk =   0.0277778
        k(   77) = (   0.3333333   0.3333333  -0.5000000), wk =   0.0138889
        k(   78) = (   0.3333333   0.4166667   0.4166667), wk =   0.0277778
        k(   79) = (   0.3333333   0.4166667  -0.5000000), wk =   0.0277778
        k(   80) = (   0.3333333  -0.5000000  -0.5000000), wk =   0.0069444
        k(   81) = (   0.4166667   0.4166667   0.4166667), wk =   0.0092593
        k(   82) = (   0.4166667   0.4166667  -0.5000000), wk =   0.0138889
        k(   83) = (   0.4166667  -0.5000000  -0.5000000), wk =   0.0069444
        k(   84) = (  -0.5000000  -0.5000000  -0.5000000), wk =   0.0011574

     Dense  grid:    11019 G-vectors     FFT dimensions: (  27,  27,  27)

     Smooth grid:     3887 G-vectors     FFT dimensions: (  20,  20,  20)

     Dynamical RAM for                 wfc:       0.13 MB

     Dynamical RAM for     wfc (w. buffer):      10.65 MB

     Dynamical RAM for           str. fact:       0.34 MB

     Dynamical RAM for           local pot:       0.00 MB

     Dynamical RAM for          nlocal pot:       0.19 MB

     Dynamical RAM for                qrad:       3.21 MB

     Dynamical RAM for          rho,v,vnew:       0.95 MB

     Dynamical RAM for               rhoin:       0.32 MB

     Dynamical RAM for            rho*nmix:       2.69 MB

     Dynamical RAM for           G-vectors:       0.66 MB

     Dynamical RAM for          h,s,v(r/c):       0.05 MB

     Dynamical RAM for          <psi|beta>:       0.01 MB

     Dynamical RAM for                 psi:       0.25 MB

     Dynamical RAM for                hpsi:       0.25 MB

     Dynamical RAM for                spsi:       0.25 MB

     Dynamical RAM for      wfcinit/wfcrot:       0.26 MB

     Dynamical RAM for           addusdens:      31.44 MB

     Dynamical RAM for          addusforce:      31.53 MB

     Dynamical RAM for         addusstress:      33.80 MB

     Estimated static dynamical RAM per process >      17.58 MB

     Estimated max dynamical RAM per process >      54.06 MB

     Check: negative core charge=   -0.000004

     Initial potential from superposition of free atoms

     starting charge      25.9999, renormalised to      26.0000
     Starting wfcs are   17 randomized atomic wfcs
     Checking if some PAW data can be deallocated... 

     total cpu time spent up to now is        6.4 secs

     Self-consistent Calculation

     iteration #  1     ecut=    50.00 Ry     beta= 0.40
     Davidson diagonalization with overlap

---- Real-time Memory Report at c_bands before calling an iterative solver
            80 MiB given to the printing process from OS
             0 MiB allocation reported by mallinfo(arena+hblkhd)
          4297 MiB available memory on the node where the printing process lives
------------------
     ethr =  1.00E-02,  avg # of iterations =  3.6

     total cpu time spent up to now is       19.1 secs

     total energy              =    -502.82034060 Ry
     estimated scf accuracy    <       0.43099849 Ry

     iteration #  2     ecut=    50.00 Ry     beta= 0.40
     Davidson diagonalization with overlap

---- Real-time Memory Report at c_bands before calling an iterative solver
            91 MiB given to the printing process from OS
             0 MiB allocation reported by mallinfo(arena+hblkhd)
          4263 MiB available memory on the node where the printing process lives
------------------
     ethr =  1.66E-03,  avg # of iterations =  2.1

     total cpu time spent up to now is       36.7 secs

     total energy              =    -502.91764693 Ry
     estimated scf accuracy    <       0.02899288 Ry

     iteration #  3     ecut=    50.00 Ry     beta= 0.40
     Davidson diagonalization with overlap

---- Real-time Memory Report at c_bands before calling an iterative solver
            91 MiB given to the printing process from OS
             0 MiB allocation reported by mallinfo(arena+hblkhd)
          4257 MiB available memory on the node where the printing process lives
------------------
     ethr =  1.12E-04,  avg # of iterations =  2.6

     total cpu time spent up to now is       47.5 secs

     total energy              =    -502.92205113 Ry
     estimated scf accuracy    <       0.00303872 Ry

     iteration #  4     ecut=    50.00 Ry     beta= 0.40
     Davidson diagonalization with overlap

---- Real-time Memory Report at c_bands before calling an iterative solver
            91 MiB given to the printing process from OS
             0 MiB allocation reported by mallinfo(arena+hblkhd)
          4258 MiB available memory on the node where the printing process lives
------------------
     ethr =  1.17E-05,  avg # of iterations =  2.2

     total cpu time spent up to now is       64.0 secs

     total energy              =    -502.92192916 Ry
     estimated scf accuracy    <       0.00076834 Ry

     iteration #  5     ecut=    50.00 Ry     beta= 0.40
     Davidson diagonalization with overlap

---- Real-time Memory Report at c_bands before calling an iterative solver
            91 MiB given to the printing process from OS
             0 MiB allocation reported by mallinfo(arena+hblkhd)
          4256 MiB available memory on the node where the printing process lives
------------------
     ethr =  2.96E-06,  avg # of iterations =  2.2

     total cpu time spent up to now is       68.6 secs

     total energy              =    -502.92197065 Ry
     estimated scf accuracy    <       0.00000208 Ry

     iteration #  6     ecut=    50.00 Ry     beta= 0.40
     Davidson diagonalization with overlap

---- Real-time Memory Report at c_bands before calling an iterative solver
            91 MiB given to the printing process from OS
             0 MiB allocation reported by mallinfo(arena+hblkhd)
          4256 MiB available memory on the node where the printing process lives
------------------
     ethr =  8.01E-09,  avg # of iterations =  2.1

     total cpu time spent up to now is       94.6 secs

     total energy              =    -502.92197152 Ry
     estimated scf accuracy    <       0.00000092 Ry

     iteration #  7     ecut=    50.00 Ry     beta= 0.40
     Davidson diagonalization with overlap

---- Real-time Memory Report at c_bands before calling an iterative solver
            92 MiB given to the printing process from OS
             0 MiB allocation reported by mallinfo(arena+hblkhd)
          4257 MiB available memory on the node where the printing process lives
------------------
     ethr =  3.54E-09,  avg # of iterations =  2.0

     total cpu time spent up to now is      102.2 secs

     End of self-consistent calculation

          k = 0.0000 0.0000 0.0000 (   461 PWs)   bands (ev):

  -101.4209 -55.5901 -55.5901 -55.5901   0.2338  15.4687  15.4687  18.1875
    18.1875  18.1875  21.3764  21.3764  21.3764  27.3071  40.6859  40.6859
    49.4655

     occupation numbers 
     1.0000   1.0000   1.0000   1.0000   1.0000   1.0000   1.0000   1.0000
     1.0000   1.0000   1.0000   1.0000   1.0000   0.0000   0.0000   0.0000
     0.0000

          k = 0.0000 0.0000 0.0833 (   473 PWs)   bands (ev):

  -101.4200 -55.5994 -55.5895 -55.5895   0.3750  15.4394  15.4961  17.9898
    17.9898  18.1939  20.7172  21.6353  21.6353  27.8700  40.6459  40.7501
    49.1486

     occupation numbers 
     1.0000   1.0000   1.0000   1.0000   1.0000   1.0000   1.0000   1.0000
     1.0000   1.0000   1.0000   1.0000   1.0000   0.0000   0.0000   0.0000
     0.0000

          k = 0.0000 0.0000 0.1667 (   474 PWs)   bands (ev):

  -101.4175 -55.6244 -55.5874 -55.5874   0.7856  15.1688  15.5716  17.5513
    17.5513  18.2116  19.5423  22.2492  22.2492  28.9866  40.2637  40.9421
    48.2227

     occupation numbers 
     1.0000   1.0000   1.0000   1.0000   1.0000   1.0000   1.0000   1.0000
     1.0000   1.0000   1.0000   1.0000   1.0000   0.0000   0.0000   0.0000
     0.0000

          k = 0.0000 0.0000 0.2500 (   486 PWs)   bands (ev):

  -101.4141 -55.6586 -55.5847 -55.5847   1.4214  14.2572  15.6762  17.0825
    17.0825  18.2360  18.9281  22.9774  22.9774  30.1160  39.2412  41.2549
    46.9041

     occupation numbers 
     1.0000   1.0000   1.0000   1.0000   1.0000   1.0000   1.0000   1.0000
     1.0000   1.0000   1.0000   1.0000   1.0000   0.0000   0.0000   0.0000
     0.0000

          k = 0.0000 0.0000 0.3333 (   478 PWs)   bands (ev):

  -101.4106 -55.6923 -55.5818 -55.5818   2.1852  12.8745  15.7826  16.6964
    16.6964  18.2605  18.9808  23.6498  23.6498  31.1682  37.7760  41.6566
    45.5929

     occupation numbers 
     1.0000   1.0000   1.0000   1.0000   1.0000   1.0000   1.0000   1.0000
     1.0000   1.0000   1.0000   1.0000   1.0000   0.0000   0.0000   0.0000
     0.0000

          k = 0.0000 0.0000 0.4167 (   486 PWs)   bands (ev):

  -101.4081 -55.7174 -55.5798 -55.5798   2.8786  11.6631  15.8616  16.4473
    16.4473  18.2785  19.2236  24.1284  24.1284  32.1440  36.3165  42.0451
    44.6510

     occupation numbers 
     1.0000   1.0000   1.0000   1.0000   1.0000   1.0000   1.0000   1.0000
     1.0000   1.0000   1.0000   1.0000   1.0000   0.0000   0.0000   0.0000
     0.0000

          k = 0.0000 0.0000-0.5000 (   482 PWs)   bands (ev):

  -101.4072 -55.7263 -55.5790 -55.5790   3.1781  11.1723  15.8908  16.3616
    16.3616  18.2851  19.3387  24.3029  24.3029  32.6838  35.5735  42.2198
    44.3103

     occupation numbers 
     1.0000   1.0000   1.0000   1.0000   1.0000   1.0000   1.0000   1.0000
     1.0000   1.0000   1.0000   1.0000   1.0000   0.0000   0.0000   0.0000
     0.0000

          k = 0.0000 0.0833 0.0833 (   467 PWs)   bands (ev):

  -101.4191 -55.5989 -55.5982 -55.5887   0.5141  15.4604  15.4883  17.7587
    17.8861  18.1383  20.8608  21.1353  21.8561  28.4033  40.6864  40.7507
    48.3758

     occupation numbers 
     1.0000   1.0000   1.0000   1.0000   1.0000   1.0000   1.0000   1.0000
     1.0000   1.0000   1.0000   1.0000   1.0000   0.0000   0.0000   0.0000
     0.0000

          k = 0.0000 0.0833 0.1667 (   472 PWs)   bands (ev):

  -101.4166 -55.6236 -55.5965 -55.5866   0.9182  15.2283  15.5614  17.2969
    17.5288  18.1312  19.8101  21.6419  22.3949  29.4751  40.3283  40.9243
    47.2601

     occupation numbers 
     1.0000   1.0000   1.0000   1.0000   1.0000   1.0000   1.0000   1.0000
     1.0000   1.0000   1.0000   1.0000   1.0000   0.0000   0.0000   0.0000
     0.0000

          k = 0.0000 0.0833 0.2500 (   480 PWs)   bands (ev):

  -101.4131 -55.6577 -55.5935 -55.5839   1.5427  14.3420  15.6771  16.9312
    17.1038  18.1591  19.0882  22.3597  23.0471  30.5612  39.2192  41.2451
    46.0642

     occupation numbers 
     1.0000   1.0000   1.0000   1.0000   1.0000   1.0000   1.0000   1.0000
     1.0000   1.0000   1.0000   1.0000   1.0000   0.0000   0.0000   0.0000
     0.0000

          k = 0.0000 0.0833 0.3333 (   483 PWs)   bands (ev):

  -101.4097 -55.6916 -55.5907 -55.5810   2.2902  12.9969  15.8003  16.6381
    16.7424  18.1919  19.0240  23.0266  23.6535  31.5740  37.6177  41.6803
    44.8500

     occupation numbers 
     1.0000   1.0000   1.0000   1.0000   1.0000   1.0000   1.0000   1.0000
     1.0000   1.0000   1.0000   1.0000   1.0000   0.0000   0.0000   0.0000
     0.0000

          k = 0.0000 0.0833 0.4167 (   483 PWs)   bands (ev):

  -101.4072 -55.7163 -55.5886 -55.5790   2.9651  11.8210  15.9063  16.4025
    16.5060  18.2168  19.2183  23.5085  24.0850  32.5616  36.0102  42.2048
    43.7964

     occupation numbers 
     1.0000   1.0000   1.0000   1.0000   1.0000   1.0000   1.0000   1.0000
     1.0000   1.0000   1.0000   1.0000   1.0000   0.0000   0.0000   0.0000
     0.0000

          k = 0.0000 0.0833-0.5000 (   478 PWs)   bands (ev):

  -101.4062 -55.7252 -55.5877 -55.5782   3.2549  11.3456  15.9569  16.3047
    16.4242  18.2260  19.3213  23.6866  24.2420  33.2084  35.1091  42.6492
    43.1703

     occupation numbers 
     1.0000   1.0000   1.0000   1.0000   1.0000   1.0000   1.0000   1.0000
     1.0000   1.0000   1.0000   1.0000   1.0000   0.0000   0.0000   0.0000
     0.0000

          k = 0.0000 0.1667 0.1667 (   469 PWs)   bands (ev):

  -101.4140 -55.6220 -55.6204 -55.5845   1.3024  15.3002  15.4353  16.8622
    17.4068  18.0041  20.2799  20.5357  22.7644  30.4575  40.3917  40.5574
    46.0114

     occupation numbers 
     1.0000   1.0000   1.0000   1.0000   1.0000   1.0000   1.0000   1.0000
     1.0000   1.0000   1.0000   1.0000   1.0000   0.0000   0.0000   0.0000
     0.0000

          k = 0.0000 0.1667 0.2500 (   476 PWs)   bands (ev):

  -101.4106 -55.6552 -55.6181 -55.5817   1.8925  14.5362  15.5853  16.6714
    17.1470  17.9778  19.4553  21.0605  23.2247  31.4155  39.0295  40.7603
    45.3202

     occupation numbers 
     1.0000   1.0000   1.0000   1.0000   1.0000   1.0000   1.0000   1.0000
     1.0000   1.0000   1.0000   1.0000   1.0000   0.0000   0.0000   0.0000
     0.0000

          k = 0.0000 0.1667 0.3333 (   480 PWs)   bands (ev):

  -101.4072 -55.6890 -55.6150 -55.5790   2.5912  13.3333  15.7717  16.5447
    16.8685  18.0130  19.1331  21.6651  23.6549  32.2500  37.1943  41.0690
    44.6885

     occupation numbers 
     1.0000   1.0000   1.0000   1.0000   1.0000   1.0000   1.0000   1.0000
     1.0000   1.0000   1.0000   1.0000   1.0000   0.0000   0.0000   0.0000
     0.0000

          k = 0.0000 0.1667 0.4167 (   477 PWs)   bands (ev):

  -101.4047 -55.7135 -55.6127 -55.5770   3.2113  12.2765  15.9528  16.3422
    16.6714  18.0519  19.1964  22.1173  23.9590  33.0628  35.4980  41.3877
    44.0434

     occupation numbers 
     1.0000   1.0000   1.0000   1.0000   1.0000   1.0000   1.0000   1.0000
     1.0000   1.0000   1.0000   1.0000   1.0000   0.0000   0.0000   0.0000
     0.0000

          k = 0.0000 0.1667-0.5000 (   486 PWs)   bands (ev):

  -101.4038 -55.7226 -55.6121 -55.5763   3.4733  11.8495  16.1330  16.1420
    16.6013  18.0675  19.2653  22.2892  24.0689  33.8215  34.3933  41.5481
    43.7449

     occupation numbers 
     1.0000   1.0000   1.0000   1.0000   1.0000   1.0000   1.0000   1.0000
     1.0000   1.0000   1.0000   1.0000   1.0000   0.0000   0.0000   0.0000
     0.0000

          k = 0.0000 0.2500 0.2500 (   487 PWs)   bands (ev):

  -101.4072 -55.6530 -55.6508 -55.5791   2.4240  14.4954  15.3898  16.5918
    17.1430  17.8210  19.8409  19.9296  23.4421  32.0897  38.1532  40.1357
    45.4713

     occupation numbers 
     1.0000   1.0000   1.0000   1.0000   1.0000   1.0000   1.0000   1.0000
     1.0000   1.0000   1.0000   1.0000   1.0000   0.0000   0.0000   0.0000
     0.0000

          k = 0.0000 0.2500 0.3333 (   489 PWs)   bands (ev):

  -101.4038 -55.6854 -55.6485 -55.5764   3.0416  13.7706  15.5423  16.5664
    17.0358  17.7940  19.2608  20.3112  23.6369  32.3438  36.8547  40.0842
    45.4520

     occupation numbers 
     1.0000   1.0000   1.0000   1.0000   1.0000   1.0000   1.0000   1.0000
     1.0000   1.0000   1.0000   1.0000   1.0000   0.0000   0.0000   0.0000
     0.0000

          k = 0.0000 0.2500 0.4167 (   485 PWs)   bands (ev):

  -101.4013 -55.7098 -55.6459 -55.5743   3.5751  12.9700  15.7763  16.4426
    16.9108  17.8348  19.1439  20.6344  23.7680  32.2201  36.0157  40.2311
    45.1013

     occupation numbers 
     1.0000   1.0000   1.0000   1.0000   1.0000   1.0000   1.0000   1.0000
     1.0000   1.0000   1.0000   1.0000   1.0000   0.0000   0.0000   0.0000
     0.0000

          k = 0.0000 0.2500-0.5000 (   476 PWs)   bands (ev):

  -101.4004 -55.7186 -55.6449 -55.5735   3.7949  12.6340  15.8953  16.3489
    16.8602  17.8572  19.1632  20.7612  23.8139  32.0917  35.7630  40.3210
    44.8995

     occupation numbers 
     1.0000   1.0000   1.0000   1.0000   1.0000   1.0000   1.0000   1.0000
     1.0000   1.0000   1.0000   1.0000   1.0000   0.0000   0.0000   0.0000
     0.0000

          k = 0.0000 0.3333 0.3333 (   493 PWs)   bands (ev):

  -101.4004 -55.6826 -55.6810 -55.5737   3.5522  14.0069  15.3202  16.6102
    17.1629  17.6385  19.2775  19.5181  23.5964  31.6288  36.9352  39.5031
    45.7880

     occupation numbers 
     1.0000   1.0000   1.0000   1.0000   1.0000   1.0000   1.0000   1.0000
     1.0000   1.0000   1.0000   1.0000   1.0000   0.0000   0.0000   0.0000
     0.0000

          k = 0.0000 0.3333 0.4167 (   490 PWs)   bands (ev):

  -101.3979 -55.7060 -55.6791 -55.5717   3.9787  13.7822  15.4615  16.5439
    17.1665  17.6289  19.0512  19.4881  23.5523  30.7832  37.0830  39.3971
    45.5288

     occupation numbers 
     1.0000   1.0000   1.0000   1.0000   1.0000   1.0000   1.0000   1.0000
     1.0000   1.0000   1.0000   1.0000   1.0000   0.0000   0.0000   0.0000
     0.0000

          k = 0.0000 0.3333-0.5000 (   484 PWs)   bands (ev):

  -101.3970 -55.7148 -55.6781 -55.5708   4.1495  13.6067  15.5990  16.4754
    17.1428  17.6537  19.0222  19.4952  23.5331  30.4311  37.1112  39.4547
    45.3220

     occupation numbers 
     1.0000   1.0000   1.0000   1.0000   1.0000   1.0000   1.0000   1.0000
     1.0000   1.0000   1.0000   1.0000   1.0000   0.0000   0.0000   0.0000
     0.0000

          k = 0.0000 0.4167 0.4167 (   485 PWs)   bands (ev):

  -101.3954 -55.7035 -55.7029 -55.5696   4.3069  14.4508  15.2458  16.4703
    17.3469  17.5053  18.8666  18.9471  23.3760  29.6679  37.9752  38.9426
    45.2243

     occupation numbers 
     1.0000   1.0000   1.0000   1.0000   1.0000   1.0000   1.0000   1.0000
     1.0000   1.0000   1.0000   1.0000   1.0000   0.0000   0.0000   0.0000
     0.0000

          k = 0.0000 0.4167-0.5000 (   484 PWs)   bands (ev):

  -101.3945 -55.7120 -55.7022 -55.5688   4.4356  14.6081  15.3280  16.3476
    17.3689  17.5088  18.6978  18.8934  23.3071  29.2550  38.2364  38.9106
    44.9630

     occupation numbers 
     1.0000   1.0000   1.0000   1.0000   1.0000   1.0000   1.0000   1.0000
     1.0000   1.0000   1.0000   1.0000   1.0000   0.0000   0.0000   0.0000
     0.0000

          k = 0.0000-0.5000-0.5000 (   500 PWs)   bands (ev):

  -101.3937 -55.7113 -55.7113 -55.5683   4.5470  15.2123  15.2123  16.0754
    17.4565  17.4565  18.4324  18.8435  23.2191  28.8310  38.7211  38.7211
    44.6587

     occupation numbers 
     1.0000   1.0000   1.0000   1.0000   1.0000   1.0000   1.0000   1.0000
     1.0000   1.0000   1.0000   1.0000   1.0000   0.0000   0.0000   0.0000
     0.0000

          k = 0.0833 0.0833 0.0833 (   470 PWs)   bands (ev):

  -101.4182 -55.5984 -55.5975 -55.5975   0.6511  15.4887  15.4887  17.5407
    17.9307  17.9307  20.9105  21.4020  21.4020  28.9014  40.7468  40.7468
    47.5504

     occupation numbers 
     1.0000   1.0000   1.0000   1.0000   1.0000   1.0000   1.0000   1.0000
     1.0000   1.0000   1.0000   1.0000   1.0000   0.0000   0.0000   0.0000
     0.0000

          k = 0.0833 0.0833 0.1667 (   471 PWs)   bands (ev):

  -101.4156 -55.6227 -55.5959 -55.5954   1.0490  15.2886  15.5678  17.1494
    17.4752  17.9822  20.0204  21.6181  22.0262  29.9128  40.3903  40.9231
    46.6240

     occupation numbers 
     1.0000   1.0000   1.0000   1.0000   1.0000   1.0000   1.0000   1.0000
     1.0000   1.0000   1.0000   1.0000   1.0000   0.0000   0.0000   0.0000
     0.0000

          k = 0.0833 0.0833 0.2500 (   477 PWs)   bands (ev):

  -101.4122 -55.6567 -55.5930 -55.5926   1.6627  14.4321  15.6807  16.9322
    16.9894  18.0427  19.2503  22.1632  22.7605  30.9350  39.2332  41.1975
    46.0627

     occupation numbers 
     1.0000   1.0000   1.0000   1.0000   1.0000   1.0000   1.0000   1.0000
     1.0000   1.0000   1.0000   1.0000   1.0000   0.0000   0.0000   0.0000
     0.0000

          k = 0.0833 0.0833 0.3333 (   480 PWs)   bands (ev):

  -101.4088 -55.6906 -55.5901 -55.5897   2.3950  13.1197  15.8063  16.5787
    16.8013  18.1035  19.0855  22.6891  23.4380  31.8883  37.5515  41.5278
    44.6691

     occupation numbers 
     1.0000   1.0000   1.0000   1.0000   1.0000   1.0000   1.0000   1.0000
     1.0000   1.0000   1.0000   1.0000   1.0000   0.0000   0.0000   0.0000
     0.0000

          k = 0.0833 0.0833 0.4167 (   479 PWs)   bands (ev):

  -101.4063 -55.7152 -55.5880 -55.5875   3.0526  11.9747  15.9293  16.2826
    16.6663  18.1444  19.2291  23.0738  23.9218  32.8653  35.8533  41.8339
    43.5058

     occupation numbers 
     1.0000   1.0000   1.0000   1.0000   1.0000   1.0000   1.0000   1.0000
     1.0000   1.0000   1.0000   1.0000   1.0000   0.0000   0.0000   0.0000
     0.0000

          k = 0.0833 0.0833-0.5000 (   476 PWs)   bands (ev):

  -101.4053 -55.7242 -55.5873 -55.5867   3.3336  11.5128  16.0262  16.1284
    16.6097  18.1586  19.3200  23.2167  24.0988  33.6555  34.7725  41.9798
    43.0715

     occupation numbers 
     1.0000   1.0000   1.0000   1.0000   1.0000   1.0000   1.0000   1.0000
     1.0000   1.0000   1.0000   1.0000   1.0000   0.0000   0.0000   0.0000
     0.0000

          k = 0.0833 0.1667 0.1667 (   477 PWs)   bands (ev):

  -101.4131 -55.6214 -55.6196 -55.5936   1.4278  15.3932  15.4535  16.8032
    17.3370  17.7859  20.2750  20.8251  22.3057  30.7960  40.5014  40.5304
    45.6639

     occupation numbers 
     1.0000   1.0000   1.0000   1.0000   1.0000   1.0000   1.0000   1.0000
     1.0000   1.0000   1.0000   1.0000   1.0000   0.0000   0.0000   0.0000
     0.0000

          k = 0.0833 0.1667 0.2500 (   481 PWs)   bands (ev):

  -101.4097 -55.6543 -55.6174 -55.5908   2.0089  14.6439  15.5911  16.7069
    17.0260  17.8054  19.5809  21.0994  22.8382  31.6453  39.1432  40.6347
    45.4089

     occupation numbers 
     1.0000   1.0000   1.0000   1.0000   1.0000   1.0000   1.0000   1.0000
     1.0000   1.0000   1.0000   1.0000   1.0000   0.0000   0.0000   0.0000
     0.0000

          k = 0.0833 0.1667 0.3333 (   483 PWs)   bands (ev):

  -101.4063 -55.6880 -55.6143 -55.5879   2.6952  13.4555  15.7312  16.5318
    16.9271  17.8943  19.2183  21.5237  23.3702  32.3798  37.3219  40.6410
    44.9391

     occupation numbers 
     1.0000   1.0000   1.0000   1.0000   1.0000   1.0000   1.0000   1.0000
     1.0000   1.0000   1.0000   1.0000   1.0000   0.0000   0.0000   0.0000
     0.0000

          k = 0.0833 0.1667 0.4167 (   479 PWs)   bands (ev):

  -101.4038 -55.7125 -55.6120 -55.5858   3.3022  12.4151  15.8368  16.3017
    16.9050  17.9632  19.2417  21.8295  23.7671  33.1106  35.6505  40.5081
    44.3327

     occupation numbers 
     1.0000   1.0000   1.0000   1.0000   1.0000   1.0000   1.0000   1.0000
     1.0000   1.0000   1.0000   1.0000   1.0000   0.0000   0.0000   0.0000
     0.0000

          k = 0.0833 0.1667-0.5000 (   484 PWs)   bands (ev):

  -101.4029 -55.7215 -55.6113 -55.5851   3.5577  11.9962  15.8809  16.2113
    16.8825  17.9879  19.3026  21.9422  23.9157  33.7245  34.6721  40.4144
    44.1563

     occupation numbers 
     1.0000   1.0000   1.0000   1.0000   1.0000   1.0000   1.0000   1.0000
     1.0000   1.0000   1.0000   1.0000   1.0000   0.0000   0.0000   0.0000
     0.0000

          k = 0.0833 0.2500 0.2500 (   484 PWs)   bands (ev):

  -101.4063 -55.6520 -55.6498 -55.5880   2.5346  14.6326  15.3530  16.6596
    17.0288  17.6561  19.7909  20.1436  23.1041  32.1787  38.3383  39.8983
    45.7102

     occupation numbers 
     1.0000   1.0000   1.0000   1.0000   1.0000   1.0000   1.0000   1.0000
     1.0000   1.0000   1.0000   1.0000   1.0000   0.0000   0.0000   0.0000
     0.0000

          k = 0.0833 0.2500 0.3333 (   482 PWs)   bands (ev):

  -101.4029 -55.6844 -55.6475 -55.5851   3.1451  13.8854  15.4478  16.6013
    17.0818  17.6942  19.3345  20.2650  23.3882  32.3586  36.9962  39.6328
    45.7648

     occupation numbers 
     1.0000   1.0000   1.0000   1.0000   1.0000   1.0000   1.0000   1.0000
     1.0000   1.0000   1.0000   1.0000   1.0000   0.0000   0.0000   0.0000
     0.0000

          k = 0.0833 0.2500 0.4167 (   480 PWs)   bands (ev):

  -101.4004 -55.7087 -55.6450 -55.5830   3.6717  13.0752  15.5622  16.4780
    17.1771  17.7676  19.2139  20.4194  23.6110  32.2451  36.1020  39.4284
    45.4171

     occupation numbers 
     1.0000   1.0000   1.0000   1.0000   1.0000   1.0000   1.0000   1.0000
     1.0000   1.0000   1.0000   1.0000   1.0000   0.0000   0.0000   0.0000
     0.0000

          k = 0.0833 0.2500-0.5000 (   482 PWs)   bands (ev):

  -101.3995 -55.7177 -55.6442 -55.5823   3.8885  12.7380  15.5957  16.4344
    17.1987  17.7985  19.2420  20.4676  23.6978  32.1360  35.8253  39.3316
    45.2997

     occupation numbers 
     1.0000   1.0000   1.0000   1.0000   1.0000   1.0000   1.0000   1.0000
     1.0000   1.0000   1.0000   1.0000   1.0000   0.0000   0.0000   0.0000
     0.0000

          k = 0.0833 0.3333 0.3333 (   488 PWs)   bands (ev):

  -101.3995 -55.6816 -55.6801 -55.5823   3.6558  14.0940  15.1718  16.6215
    17.2549  17.6567  19.2609  19.5265  23.4158  31.6638  36.8502  39.0443
    46.0003

     occupation numbers 
     1.0000   1.0000   1.0000   1.0000   1.0000   1.0000   1.0000   1.0000
     1.0000   1.0000   1.0000   1.0000   1.0000   0.0000   0.0000   0.0000
     0.0000

          k = 0.0833 0.3333 0.4167 (   487 PWs)   bands (ev):

  -101.3970 -55.7051 -55.6782 -55.5803   4.0831  13.8214  15.2248  16.5610
    17.4417  17.7055  19.0413  19.3692  23.4438  30.8496  36.8766  38.7407
    45.8072

     occupation numbers 
     1.0000   1.0000   1.0000   1.0000   1.0000   1.0000   1.0000   1.0000
     1.0000   1.0000   1.0000   1.0000   1.0000   0.0000   0.0000   0.0000
     0.0000

          k = 0.0833 0.3333-0.5000 (   488 PWs)   bands (ev):

  -101.3961 -55.7139 -55.6773 -55.5796   4.2545  13.6301  15.2887  16.5373
    17.5193  17.7213  19.1172  19.2134  23.4577  30.5057  36.9061  38.6396
    45.6991

     occupation numbers 
     1.0000   1.0000   1.0000   1.0000   1.0000   1.0000   1.0000   1.0000
     1.0000   1.0000   1.0000   1.0000   1.0000   0.0000   0.0000   0.0000
     0.0000

          k = 0.0833 0.4167 0.4167 (   487 PWs)   bands (ev):

  -101.3946 -55.7026 -55.7021 -55.5782   4.4188  14.3857  14.9857  16.4727
    17.6604  17.7931  18.5603  19.0538  23.3105  29.7332  37.5086  38.3422
    45.5774

     occupation numbers 
     1.0000   1.0000   1.0000   1.0000   1.0000   1.0000   1.0000   1.0000
     1.0000   1.0000   1.0000   1.0000   1.0000   0.0000   0.0000   0.0000
     0.0000

          k = 0.0833 0.4167-0.5000 (   494 PWs)   bands (ev):

  -101.3937 -55.7112 -55.7014 -55.5776   4.5508  14.4829  15.0204  16.4011
    17.7769  17.8156  18.4007  18.9453  23.2596  29.3134  37.7420  38.2204
    45.4035

     occupation numbers 
     1.0000   1.0000   1.0000   1.0000   1.0000   1.0000   1.0000   1.0000
     1.0000   1.0000   1.0000   1.0000   1.0000   0.0000   0.0000   0.0000
     0.0000

          k = 0.0833-0.5000-0.5000 (   492 PWs)   bands (ev):

  -101.3928 -55.7102 -55.7102 -55.5767   4.6666  14.9075  14.9075  16.2399
    17.8988  17.8988  18.1041  18.8467  23.1813  28.8770  38.0748  38.0748
    45.1808

     occupation numbers 
     1.0000   1.0000   1.0000   1.0000   1.0000   1.0000   1.0000   1.0000
     1.0000   1.0000   1.0000   1.0000   1.0000   0.0000   0.0000   0.0000
     0.0000

          k = 0.1667 0.1667 0.1667 (   482 PWs)   bands (ev):

  -101.4107 -55.6201 -55.6174 -55.6174   1.7903  15.4983  15.4983  16.5500
    17.3382  17.3382  20.1296  21.4833  21.4833  31.4609  40.4024  40.4024
    44.7715

     occupation numbers 
     1.0000   1.0000   1.0000   1.0000   1.0000   1.0000   1.0000   1.0000
     1.0000   1.0000   1.0000   1.0000   1.0000   0.0000   0.0000   0.0000
     0.0000

          k = 0.1667 0.1667 0.2500 (   484 PWs)   bands (ev):

  -101.4073 -55.6519 -55.6161 -55.6144   2.3443  14.8979  15.5418  16.6574
    16.9068  17.4840  19.6576  21.1103  22.2500  32.0490  39.2498  40.0519
    44.8157

     occupation numbers 
     1.0000   1.0000   1.0000   1.0000   1.0000   1.0000   1.0000   1.0000
     1.0000   1.0000   1.0000   1.0000   1.0000   0.0000   0.0000   0.0000
     0.0000

          k = 0.1667 0.1667 0.3333 (   485 PWs)   bands (ev):

  -101.4038 -55.6854 -55.6130 -55.6114   2.9938  13.7809  15.5481  16.6071
    17.0376  17.6552  19.3019  21.0321  22.9647  32.5190  37.5150  39.4342
    45.6423

     occupation numbers 
     1.0000   1.0000   1.0000   1.0000   1.0000   1.0000   1.0000   1.0000
     1.0000   1.0000   1.0000   1.0000   1.0000   0.0000   0.0000   0.0000
     0.0000

          k = 0.1667 0.1667 0.4167 (   479 PWs)   bands (ev):

  -101.4013 -55.7098 -55.6107 -55.6090   3.5621  12.8022  15.5143  16.4631
    17.2698  17.7702  19.3010  20.9803  23.4849  32.9786  35.9819  38.8046
    45.3390

     occupation numbers 
     1.0000   1.0000   1.0000   1.0000   1.0000   1.0000   1.0000   1.0000
     1.0000   1.0000   1.0000   1.0000   1.0000   0.0000   0.0000   0.0000
     0.0000

          k = 0.1667 0.1667-0.5000 (   488 PWs)   bands (ev):

  -101.4004 -55.7189 -55.6100 -55.6083   3.7989  12.4102  15.4919  16.4262
    17.3249  17.8103  19.3779  20.9472  23.6780  33.2825  35.2680  38.5406
    45.2469

     occupation numbers 
     1.0000   1.0000   1.0000   1.0000   1.0000   1.0000   1.0000   1.0000
     1.0000   1.0000   1.0000   1.0000   1.0000   0.0000   0.0000   0.0000
     0.0000

          k = 0.1667 0.2500 0.2500 (   483 PWs)   bands (ev):

  -101.4039 -55.6497 -55.6474 -55.6122   2.8531  14.9695  15.2373  16.6913
    16.8872  17.3742  19.3819  20.8331  22.3785  32.2917  38.5409  39.1678
    44.8758

     occupation numbers 
     1.0000   1.0000   1.0000   1.0000   1.0000   1.0000   1.0000   1.0000
     1.0000   1.0000   1.0000   1.0000   1.0000   0.0000   0.0000   0.0000
     0.0000

          k = 0.1667 0.2500 0.3333 (   482 PWs)   bands (ev):

  -101.4005 -55.6818 -55.6452 -55.6092   3.4426  14.1651  15.1946  16.7557
    17.1403  17.5533  19.0480  20.4989  22.8732  32.3321  37.1373  38.3821
    45.7572

     occupation numbers 
     1.0000   1.0000   1.0000   1.0000   1.0000   1.0000   1.0000   1.0000
     1.0000   1.0000   1.0000   1.0000   1.0000   0.0000   0.0000   0.0000
     0.0000

          k = 0.1667 0.2500 0.4167 (   482 PWs)   bands (ev):

  -101.3980 -55.7061 -55.6428 -55.6069   3.9495  13.3452  15.1371  16.6999
    17.5490  17.7227  19.0861  20.0890  23.3118  32.2579  36.1492  37.5990
    46.4091

     occupation numbers 
     1.0000   1.0000   1.0000   1.0000   1.0000   1.0000   1.0000   1.0000
     1.0000   1.0000   1.0000   1.0000   1.0000   0.0000   0.0000   0.0000
     0.0000

          k = 0.1667 0.2500-0.5000 (   486 PWs)   bands (ev):

  -101.3971 -55.7150 -55.6420 -55.6062   4.1575  13.0102  15.1066  16.6883
    17.6900  17.7596  19.4303  19.6779  23.4855  32.2029  35.8252  37.2613
    46.4400

     occupation numbers 
     1.0000   1.0000   1.0000   1.0000   1.0000   1.0000   1.0000   1.0000
     1.0000   1.0000   1.0000   1.0000   1.0000   0.0000   0.0000   0.0000
     0.0000

          k = 0.1667 0.3333 0.3333 (   487 PWs)   bands (ev):

  -101.3971 -55.6791 -55.6776 -55.6062   3.9543  14.2730  14.8259  16.7431
    17.4851  17.6996  18.5472  20.1777  23.0076  31.7369  36.3654  37.7989
    46.2042

     occupation numbers 
     1.0000   1.0000   1.0000   1.0000   1.0000   1.0000   1.0000   1.0000
     1.0000   1.0000   1.0000   1.0000   1.0000   0.0000   0.0000   0.0000
     0.0000

          k = 0.1667 0.3333 0.4167 (   488 PWs)   bands (ev):

  -101.3946 -55.7025 -55.6757 -55.6041   4.3849  13.8777  14.7563  16.7646
    17.7919  17.9618  18.3886  19.7771  23.2109  31.0296  36.0992  37.1353
    46.6754

     occupation numbers 
     1.0000   1.0000   1.0000   1.0000   1.0000   1.0000   1.0000   1.0000
     1.0000   1.0000   1.0000   1.0000   1.0000   0.0000   0.0000   0.0000
     0.0000

          k = 0.1667 0.3333-0.5000 (   478 PWs)   bands (ev):

  -101.3937 -55.7111 -55.6747 -55.6031   4.5584  13.6540  14.7475  16.7930
    17.8720  17.9273  18.7608  19.4033  23.3093  30.7155  36.1971  36.7077
    46.8465

     occupation numbers 
     1.0000   1.0000   1.0000   1.0000   1.0000   1.0000   1.0000   1.0000
     1.0000   1.0000   1.0000   1.0000   1.0000   0.0000   0.0000   0.0000
     0.0000

          k = 0.1667 0.4167 0.4167 (   489 PWs)   bands (ev):

  -101.3921 -55.7000 -55.6995 -55.6019   4.7444  14.1735  14.4758  16.7309
    17.6508  18.2317  18.4012  19.5232  23.1685  29.9243  36.1760  36.8013
    46.6907

     occupation numbers 
     1.0000   1.0000   1.0000   1.0000   1.0000   1.0000   1.0000   1.0000
     1.0000   1.0000   1.0000   1.0000   1.0000   0.0000   0.0000   0.0000
     0.0000

          k = 0.1667 0.4167-0.5000 (   488 PWs)   bands (ev):

  -101.3912 -55.7085 -55.6988 -55.6011   4.8870  14.1538  14.4600  16.7398
    17.4412  18.3496  18.7805  19.2315  23.1632  29.4872  36.3862  36.4983
    46.6928

     occupation numbers 
     1.0000   1.0000   1.0000   1.0000   1.0000   1.0000   1.0000   1.0000
     1.0000   1.0000   1.0000   1.0000   1.0000   0.0000   0.0000   0.0000
     0.0000

          k = 0.1667-0.5000-0.5000 (   484 PWs)   bands (ev):

  -101.3903 -55.7074 -55.7074 -55.6002   5.0166  14.3426  14.3426  16.7041
    17.1998  18.8552  18.8734  18.8734  23.1033  29.0156  36.4407  36.4407
    46.5966

     occupation numbers 
     1.0000   1.0000   1.0000   1.0000   1.0000   1.0000   1.0000   1.0000
     1.0000   1.0000   1.0000   1.0000   1.0000   0.0000   0.0000   0.0000
     0.0000

          k = 0.2500 0.2500 0.2500 (   480 PWs)   bands (ev):

  -101.4005 -55.6474 -55.6441 -55.6441   3.3354  15.0523  15.0523  16.5790
    17.1790  17.1790  18.8243  21.6582  21.6582  32.2717  38.0128  38.0128
    44.6387

     occupation numbers 
     1.0000   1.0000   1.0000   1.0000   1.0000   1.0000   1.0000   1.0000
     1.0000   1.0000   1.0000   1.0000   1.0000   0.0000   0.0000   0.0000
     0.0000

          k = 0.2500 0.2500 0.3333 (   484 PWs)   bands (ev):

  -101.3971 -55.6783 -55.6432 -55.6409   3.8918  14.3954  14.8503  17.0905
    17.0915  17.5985  18.3499  20.9907  22.4624  32.1523  36.7267  36.8859
    45.5340

     occupation numbers 
     1.0000   1.0000   1.0000   1.0000   1.0000   1.0000   1.0000   1.0000
     1.0000   1.0000   1.0000   1.0000   1.0000   0.0000   0.0000   0.0000
     0.0000

          k = 0.2500 0.2500 0.4167 (   485 PWs)   bands (ev):

  -101.3946 -55.7024 -55.6408 -55.6385   4.3677  13.6520  14.6984  17.0662
    17.5248  17.9711  18.4120  20.2727  23.0779  32.0378  35.7159  35.9099
    46.8534

     occupation numbers 
     1.0000   1.0000   1.0000   1.0000   1.0000   1.0000   1.0000   1.0000
     1.0000   1.0000   1.0000   1.0000   1.0000   0.0000   0.0000   0.0000
     0.0000

          k = 0.2500 0.2500-0.5000 (   488 PWs)   bands (ev):

  -101.3937 -55.7113 -55.6400 -55.6377   4.5621  13.3427  14.6427  17.0625
    17.6813  17.8618  19.0756  19.6550  23.3148  31.9954  35.3300  35.5354
    47.6703

     occupation numbers 
     1.0000   1.0000   1.0000   1.0000   1.0000   1.0000   1.0000   1.0000
     1.0000   1.0000   1.0000   1.0000   1.0000   0.0000   0.0000   0.0000
     0.0000

          k = 0.2500 0.3333 0.3333 (   483 PWs)   bands (ev):

  -101.3937 -55.6756 -55.6740 -55.6388   4.4077  14.3321  14.4408  17.0478
    17.5022  17.7518  17.9803  21.0572  22.5365  31.7569  35.3988  36.1181
    45.9787

     occupation numbers 
     1.0000   1.0000   1.0000   1.0000   1.0000   1.0000   1.0000   1.0000
     1.0000   1.0000   1.0000   1.0000   1.0000   0.0000   0.0000   0.0000
     0.0000

          k = 0.2500 0.3333 0.4167 (   481 PWs)   bands (ev):

  -101.3913 -55.6988 -55.6722 -55.6364   4.8456  13.8492  14.2931  17.0132
    17.3412  17.9715  18.6841  20.5193  22.9715  31.2490  34.6461  35.3646
    46.8315

     occupation numbers 
     1.0000   1.0000   1.0000   1.0000   1.0000   1.0000   1.0000   1.0000
     1.0000   1.0000   1.0000   1.0000   1.0000   0.0000   0.0000   0.0000
     0.0000

          k = 0.2500 0.3333-0.5000 (   486 PWs)   bands (ev):

  -101.3904 -55.7077 -55.6713 -55.6356   5.0232  13.6138  14.2423  16.9779
    17.2976  18.0383  19.4500  19.8646  23.1840  30.9999  34.4564  35.0271
    47.4464

     occupation numbers 
     1.0000   1.0000   1.0000   1.0000   1.0000   1.0000   1.0000   1.0000
     1.0000   1.0000   1.0000   1.0000   1.0000   0.0000   0.0000   0.0000
     0.0000

          k = 0.2500 0.4167 0.4167 (   488 PWs)   bands (ev):

  -101.3888 -55.6964 -55.6959 -55.6342   5.2480  13.8739  13.9802  16.4183
    17.3498  18.4404  19.2464  20.4493  23.0159  30.2228  34.3464  34.8301
    46.9544

     occupation numbers 
     1.0000   1.0000   1.0000   1.0000   1.0000   1.0000   1.0000   1.0000
     1.0000   1.0000   1.0000   1.0000   1.0000   0.0000   0.0000   0.0000
     0.0000

          k = 0.2500 0.4167-0.5000 (   490 PWs)   bands (ev):

  -101.3879 -55.7049 -55.6952 -55.6334   5.4102  13.7665  13.9370  16.2128
    17.3596  18.6007  19.8909  20.0146  23.0798  29.7688  34.3538  34.5610
    47.0643

     occupation numbers 
     1.0000   1.0000   1.0000   1.0000   1.0000   1.0000   1.0000   1.0000
     1.0000   1.0000   1.0000   1.0000   1.0000   0.0000   0.0000   0.0000
     0.0000

          k = 0.2500-0.5000-0.5000 (   496 PWs)   bands (ev):

  -101.3870 -55.7040 -55.7040 -55.6326   5.5656  13.8125  13.8125  15.9370
    17.3768  18.8666  20.0687  20.0687  23.0347  29.2460  34.3750  34.3750
    46.8721

     occupation numbers 
     1.0000   1.0000   1.0000   1.0000   1.0000   1.0000   1.0000   1.0000
     1.0000   1.0000   1.0000   1.0000   1.0000   0.0000   0.0000   0.0000
     0.0000

          k = 0.3333 0.3333 0.3333 (   486 PWs)   bands (ev):

  -101.3904 -55.6730 -55.6706 -55.6706   4.9328  14.1163  14.1163  16.4788
    17.8008  17.8008  18.4677  21.9961  21.9961  31.5917  34.4236  34.4236
    45.9013

     occupation numbers 
     1.0000   1.0000   1.0000   1.0000   1.0000   1.0000   1.0000   1.0000
     1.0000   1.0000   1.0000   1.0000   1.0000   0.0000   0.0000   0.0000
     0.0000

          k = 0.3333 0.3333 0.4167 (   478 PWs)   bands (ev):

  -101.3879 -55.6952 -55.6696 -55.6679   5.3835  13.7255  13.9047  15.9566
    17.8358  18.1596  19.3680  21.2983  22.7761  31.2468  33.1240  33.8768
    45.8911

     occupation numbers 
     1.0000   1.0000   1.0000   1.0000   1.0000   1.0000   1.0000   1.0000
     1.0000   1.0000   1.0000   1.0000   1.0000   0.0000   0.0000   0.0000
     0.0000

          k = 0.3333 0.3333-0.5000 (   480 PWs)   bands (ev):

  -101.3870 -55.7040 -55.6688 -55.6669   5.5680  13.5224  13.8316  15.7988
    17.8484  18.2723  20.3343  20.4542  23.0952  31.0583  32.6216  33.7304
    45.8881

     occupation numbers 
     1.0000   1.0000   1.0000   1.0000   1.0000   1.0000   1.0000   1.0000
     1.0000   1.0000   1.0000   1.0000   1.0000   0.0000   0.0000   0.0000
     0.0000

          k = 0.3333 0.4167 0.4167 (   481 PWs)   bands (ev):

  -101.3855 -55.6928 -55.6922 -55.6663   5.8501  13.5846  13.5922  15.1756
    18.0276  18.5247  20.2079  21.5631  22.8407  30.5714  32.5214  32.8732
    44.9295

     occupation numbers 
     1.0000   1.0000   1.0000   1.0000   1.0000   1.0000   1.0000   1.0000
     1.0000   1.0000   1.0000   1.0000   1.0000   0.0000   0.0000   0.0000
     0.0000

          k = 0.3333 0.4167-0.5000 (   484 PWs)   bands (ev):

  -101.3846 -55.7013 -55.6916 -55.6654   6.0428  13.4377  13.5316  14.9161
    18.0608  18.6855  21.0488  21.0521  23.0256  30.1239  32.2541  32.7125
    44.5330

     occupation numbers 
     1.0000   1.0000   1.0000   1.0000   1.0000   1.0000   1.0000   1.0000
     1.0000   1.0000   1.0000   1.0000   1.0000   0.0000   0.0000   0.0000
     0.0000

          k = 0.3333-0.5000-0.5000 (   488 PWs)   bands (ev):

  -101.3837 -55.7003 -55.7003 -55.6646   6.2398  13.4044  13.4044  14.5986
    18.1020  18.8781  21.3379  21.3379  22.9907  29.5513  32.3221  32.3221
    44.0070

     occupation numbers 
     1.0000   1.0000   1.0000   1.0000   1.0000   1.0000   1.0000   1.0000
     1.0000   1.0000   1.0000   1.0000   1.0000   0.0000   0.0000   0.0000
     0.0000

          k = 0.4167 0.4167 0.4167 (   477 PWs)   bands (ev):

  -101.3830 -55.6904 -55.6896 -55.6896   6.3908  13.3483  13.3483  14.2265
    18.5631  18.5631  21.1937  22.5569  22.5569  30.6817  31.3319  31.3319
    43.3069

     occupation numbers 
     1.0000   1.0000   1.0000   1.0000   1.0000   1.0000   1.0000   1.0000
     1.0000   1.0000   1.0000   1.0000   1.0000   0.0000   0.0000   0.0000
     0.0000

          k = 0.4167 0.4167-0.5000 (   478 PWs)   bands (ev):

  -101.3821 -55.6985 -55.6891 -55.6887   6.6213  13.2239  13.2653  13.8925
    18.5747  18.7624  22.0206  22.0327  22.9907  30.3506  30.7087  31.2579
    42.6960

     occupation numbers 
     1.0000   1.0000   1.0000   1.0000   1.0000   1.0000   1.0000   1.0000
     1.0000   1.0000   1.0000   1.0000   1.0000   0.0000   0.0000   0.0000
     0.0000

          k = 0.4167-0.5000-0.5000 (   480 PWs)   bands (ev):

  -101.3813 -55.6976 -55.6976 -55.6880   6.8725  13.1501  13.1501  13.5084
    18.6719  18.8866  22.4597  22.4597  22.9679  29.8549  30.6764  30.6764
    42.0165

     occupation numbers 
     1.0000   1.0000   1.0000   1.0000   1.0000   1.0000   1.0000   1.0000
     1.0000   1.0000   1.0000   1.0000   1.0000   0.0000   0.0000   0.0000
     0.0000

          k =-0.5000-0.5000-0.5000 (   480 PWs)   bands (ev):

  -101.3804 -55.6966 -55.6966 -55.6966   7.1551  13.0639  13.0639  13.0639
    18.8897  18.8897  22.9610  22.9610  22.9610  29.9925  29.9925  29.9925
    41.2868

     occupation numbers 
     1.0000   1.0000   1.0000   1.0000   1.0000   1.0000   1.0000   1.0000
     1.0000   1.0000   1.0000   1.0000   1.0000   0.0000   0.0000   0.0000
     0.0000

     the Fermi energy is    26.0544 ev

!    total energy              =    -502.92197171 Ry
     estimated scf accuracy    <          3.4E-09 Ry
     smearing contrib. (-TS)   =      -0.00000000 Ry
     internal energy E=F+TS    =    -502.92197171 Ry

     The total energy is F=E-TS. E is the sum of the following terms:
     one-electron contribution =    -272.55406449 Ry
     hartree contribution      =     160.23736287 Ry
     xc contribution           =     -50.47835405 Ry
     ewald contribution        =    -330.61499237 Ry
     one-center paw contrib.   =      -9.51192367 Ry
      -> PAW hartree energy AE =      29.97364967 Ry
      -> PAW hartree energy PS =     -29.83295554 Ry
      -> PAW xc energy AE      =     -17.28101817 Ry
      -> PAW xc energy PS      =       7.62840036 Ry
      -> total E_H with PAW    =     160.37805700 Ry
      -> total E_XC with PAW   =     -60.13097186 Ry

     convergence has been achieved in   7 iterations

     Forces acting on atoms (cartesian axes, Ry/au):

     atom    1 type  2   force =     0.00000000    0.00000000    0.00000000
     atom    2 type  1   force =     0.00000000    0.00000000    0.00000000
     The non-local contrib.  to forces
     atom    1 type  2   force =     0.00000000    0.00000000    0.00000000
     atom    2 type  1   force =     0.00000000    0.00000000    0.00000000
     The ionic contribution  to forces
     atom    1 type  2   force =    -0.00000000   -0.00000000   -0.00000000
     atom    2 type  1   force =     0.00000000    0.00000000    0.00000000
     The local contribution  to forces
     atom    1 type  2   force =     0.00000000    0.00000000    0.00000000
     atom    2 type  1   force =     0.00000000    0.00000000    0.00000000
     The core correction contribution to forces
     atom    1 type  2   force =     0.00000000    0.00000000    0.00000000
     atom    2 type  1   force =     0.00000000    0.00000000    0.00000000
     The Hubbard contrib.    to forces
     atom    1 type  2   force =     0.00000000    0.00000000    0.00000000
     atom    2 type  1   force =     0.00000000    0.00000000    0.00000000
     The SCF correction term to forces
     atom    1 type  2   force =    -0.00000000   -0.00000000   -0.00000000
     atom    2 type  1   force =     0.00000000    0.00000000   -0.00000000

     Total force =     0.000000     Total SCF correction =     0.000000


     Computing stress (Cartesian axis) and pressure

          total   stress  (Ry/bohr**3)                   (kbar)     P=     2337.55
   0.01589036   0.00000000   0.00000000         2337.55        0.00        0.00
   0.00000000   0.01589036   0.00000000            0.00     2337.55        0.00
   0.00000000   0.00000000   0.01589036            0.00        0.00     2337.55

     kinetic stress (kbar)  71566.40      0.00      0.00
                                0.00  71566.40      0.00
                                0.00      0.00  71566.40

     local   stress (kbar)  64605.01      0.00      0.00
                                0.00  64605.01     -0.00
                                0.00     -0.00  64605.01

     nonloc. stress (kbar)  -1196.20      0.00      0.00
                                0.00  -1196.20      0.00
                                0.00      0.00  -1196.20

     hartree stress (kbar)  97198.90     -0.00     -0.00
                               -0.00  97198.90      0.00
                               -0.00      0.00  97198.90

     exc-cor stress (kbar) -28507.03      0.00     -0.00
                                0.00 -28507.03      0.00
                               -0.00      0.00 -28507.03

     corecor stress (kbar)   -780.71      0.00      0.00
                                0.00   -780.71     -0.00
                                0.00     -0.00   -780.71

     ewald   stress (kbar)-200548.82      0.00     -0.00
                                0.00-200548.82     -0.00
                               -0.00     -0.00-200548.82

     hubbard stress (kbar)      0.00      0.00      0.00
                                0.00      0.00      0.00
                                0.00      0.00      0.00

     DFT-D   stress (kbar)      0.00      0.00      0.00
                                0.00      0.00      0.00
                                0.00      0.00      0.00

     XDM     stress (kbar)      0.00      0.00      0.00
                                0.00      0.00      0.00
                                0.00      0.00      0.00

     dft-nl  stress (kbar)      0.00      0.00      0.00
                                0.00      0.00      0.00
                                0.00      0.00      0.00

     TS-vdW  stress (kbar)      0.00      0.00      0.00
                                0.00      0.00      0.00
                                0.00      0.00      0.00

     MDB     stress (kbar)      0.00      0.00      0.00
                                0.00      0.00      0.00
                                0.00      0.00      0.00

     3D-RISM stress (kbar)      0.00      0.00      0.00
                                0.00      0.00      0.00
                                0.00      0.00      0.00


     Writing all to output data dir ./temp_cubic/aiida.save/ :
     XML data file, charge density, pseudopotentials, collected wavefunctions

     init_run     :    108.97s CPU      4.80s WALL (       1 calls)
     electrons    :   2273.49s CPU     95.73s WALL (       1 calls)
     forces       :      7.39s CPU      0.32s WALL (       1 calls)
     stress       :     14.49s CPU      0.72s WALL (       1 calls)

     Called by init_run:
     wfcinit      :    104.77s CPU      4.40s WALL (       1 calls)
     wfcinit:atom :      2.37s CPU      0.09s WALL (      84 calls)
     wfcinit:wfcr :     99.86s CPU      4.21s WALL (      84 calls)
     potinit      :      1.54s CPU      0.09s WALL (       1 calls)
     hinit0       :      1.78s CPU      0.25s WALL (       1 calls)

     Called by electrons:
     c_bands      :   1994.36s CPU     83.87s WALL (       7 calls)
     sum_band     :    273.87s CPU     11.56s WALL (       7 calls)
     v_of_rho     :      0.46s CPU      0.04s WALL (       8 calls)
     v_h          :      0.16s CPU      0.01s WALL (       8 calls)
     v_xc         :      0.64s CPU      0.04s WALL (      10 calls)
     newd         :      3.76s CPU      0.21s WALL (       8 calls)
     PAW_pot      :      2.41s CPU      0.10s WALL (       8 calls)
     mix_rho      :      0.08s CPU      0.01s WALL (       7 calls)

     Called by c_bands:
     init_us_2    :     21.56s CPU      0.89s WALL (    1428 calls)
     cegterg      :   1931.63s CPU     81.30s WALL (     588 calls)

     Called by sum_band:
     sum_band:wei :      0.00s CPU      0.00s WALL (       7 calls)
     sum_band:loo :    271.44s CPU     11.35s WALL (       7 calls)
     sum_band:buf :      0.05s CPU      0.01s WALL (     588 calls)
     sum_band:ini :      8.32s CPU      0.34s WALL (     588 calls)
     sum_band:cal :      5.14s CPU      0.20s WALL (     588 calls)
     sum_band:bec :     13.63s CPU      0.55s WALL (     588 calls)
     addusdens    :      2.36s CPU      0.19s WALL (       7 calls)
                                        0.00s GPU  (       7 calls)
     addusd:skk   :      0.00s CPU      0.00s WALL (      14 calls)
                                        0.00s GPU  (      14 calls)

     Called by *egterg:
     cdiaghg      :     15.54s CPU      0.55s WALL (    2009 calls)
     cegterg:over :     15.62s CPU      0.66s WALL (    1421 calls)
     cegterg:upda :     33.75s CPU      1.39s WALL (    1421 calls)
     cegterg:last :     23.65s CPU      0.98s WALL (    1126 calls)
     h_psi        :   1817.35s CPU     76.59s WALL (    2093 calls)
     s_psi        :     13.77s CPU      0.56s WALL (    2093 calls)
     g_psi        :     33.03s CPU      1.33s WALL (    1421 calls)

     Called by h_psi:
     h_psi:calbec :     11.36s CPU      0.50s WALL (    2093 calls)
     vloc_psi     :   1745.26s CPU     73.45s WALL (    2093 calls)
     add_vuspsi   :     12.48s CPU      0.57s WALL (    2093 calls)

     General routines
     calbec       :     18.70s CPU      0.84s WALL (    3101 calls)
     fft          :      0.66s CPU      0.03s WALL (     127 calls)
     ffts         :      0.00s CPU      0.00s WALL (      15 calls)
     fftw         :     97.75s CPU      3.88s WALL (   59240 calls)
     interpolate  :      0.00s CPU      0.00s WALL (       8 calls)

     Parallel routines

     PAW routines
     PAW_pot      :      2.41s CPU      0.10s WALL (       8 calls)
     PAW_symme    :      0.00s CPU      0.00s WALL (      15 calls)

     PWSCF        :  40m21.95s CPU   1m44.05s WALL


   This run was terminated on:  23:37:58   7Jun2024            

=------------------------------------------------------------------------------=
   JOB DONE.
=------------------------------------------------------------------------------=
