
     Program PWSCF v.7.3.1 starts on  7Jun2024 at 23:47: 0 

     This program is part of the open-source Quantum ESPRESSO suite
     for quantum simulation of materials; please cite
         "P. Giannozzi et al., J. Phys.:Condens. Matter 21 395502 (2009);
         "P. Giannozzi et al., J. Phys.:Condens. Matter 29 465901 (2017);
         "P. Giannozzi et al., J. Chem. Phys. 152 154105 (2020);
          URL http://www.quantum-espresso.org", 
     in publications or presentations arising from this work. More details at
     http://www.quantum-espresso.org/quote

     Parallel version (MPI & OpenMP), running on      24 processor cores
     Number of MPI processes:                 1
     Threads/MPI process:                    24

     MPI processes distributed on     1 nodes
     4380 MiB available memory on the printing compute node when the environment starts

     Waiting for input...
     Reading input from standard input

     Current dimensions of program PWSCF are:
     Max number of different atomic species (ntypx) = 10
     Max number of k-points (npk) =  40000
     Max angular momentum in pseudopotentials (lmaxx) =  4
     file O.pbe-n-kjpaw_psl.0.1.UPF: wavefunction(s)  2P renormalized
     Message from routine setup:
     using ibrav=0 with symmetry is DISCOURAGED, use correct ibrav instead

     Subspace diagonalization in iterative solution of the eigenvalue problem:
     a serial algorithm will be used


     G-vector sticks info
     --------------------
     sticks:   dense  smooth     PW     G-vecs:    dense   smooth      PW
     Sum         829     421    137                17845     6355    1213

     Using Slab Decomposition



     bravais-lattice index     =            0
     lattice parameter (alat)  =       5.0869  a.u.
     unit-cell volume          =     131.6291 (a.u.)^3
     number of atoms/cell      =            2
     number of atomic types    =            2
     number of electrons       =        26.00
     number of Kohn-Sham states=           17
     kinetic-energy cutoff     =      50.0000  Ry
     charge density cutoff     =     400.0000  Ry
     scf convergence threshold =      1.0E-08
     mixing beta               =       0.4000
     number of iterations used =            8  plain     mixing
     Exchange-correlation= SLA  PW   PBE  PBE
                           (   1   4   3   4   0   0   0)

     celldm(1)=   5.086871  celldm(2)=   0.000000  celldm(3)=   0.000000
     celldm(4)=   0.000000  celldm(5)=   0.000000  celldm(6)=   0.000000

     crystal axes: (cart. coord. in units of alat)
               a(1) = (   1.000000   0.000000   0.000000 )  
               a(2) = (   0.000000   1.000000   0.000000 )  
               a(3) = (   0.000000   0.000000   1.000000 )  

     reciprocal axes: (cart. coord. in units 2 pi/alat)
               b(1) = (  1.000000  0.000000  0.000000 )  
               b(2) = (  0.000000  1.000000  0.000000 )  
               b(3) = (  0.000000  0.000000  1.000000 )  


     PseudoPot. # 1 for O  read from file:
     ../SSSP_1.3.0_PBE_efficiency/O.pbe-n-kjpaw_psl.0.1.UPF
     MD5 check sum: 0234752ac141de4415c5fc33072bef88
     Pseudo is Projector augmented-wave + core cor, Zval =  6.0
     Generated using "atomic" code by A. Dal Corso  v.5.0.99 svn rev. 10869
     Shape of augmentation charge: BESSEL
     Using radial grid of 1095 points,  4 beta functions with: 
                l(1) =   0
                l(2) =   0
                l(3) =   1
                l(4) =   1
     Q(r) pseudized with 0 coefficients 


     PseudoPot. # 2 for Zn read from file:
     ../SSSP_1.3.0_PBE_efficiency/Zn_pbe_v1.uspp.F.UPF
     MD5 check sum: df62231357ef9e81f77b2b3087fa5675
     Pseudo is Ultrasoft, Zval = 20.0
     Generated by new atomic code, or converted to UPF format
     Using radial grid of  943 points,  6 beta functions with: 
                l(1) =   0
                l(2) =   0
                l(3) =   1
                l(4) =   1
                l(5) =   2
                l(6) =   2
     Q(r) pseudized with  8 coefficients,  rinner =    1.100   1.100   1.100
                                                       1.100   1.100

     atomic species   valence    mass     pseudopotential
     O                 6.00    15.99940     O ( 1.00)
     Zn               20.00    65.38000     Zn( 1.00)

     48 Sym. Ops., with inversion, found


                                    s                        frac. trans.

      isym =  1     identity                                     

 cryst.   s( 1) = (     1          0          0      )
                  (     0          1          0      )
                  (     0          0          1      )

 cart.    s( 1) = (  1.0000000  0.0000000  0.0000000 )
                  (  0.0000000  1.0000000  0.0000000 )
                  (  0.0000000  0.0000000  1.0000000 )


      isym =  2     180 deg rotation - cart. axis [0,0,1]        

 cryst.   s( 2) = (    -1          0          0      )
                  (     0         -1          0      )
                  (     0          0          1      )

 cart.    s( 2) = ( -1.0000000  0.0000000  0.0000000 )
                  (  0.0000000 -1.0000000  0.0000000 )
                  (  0.0000000  0.0000000  1.0000000 )


      isym =  3     180 deg rotation - cart. axis [0,1,0]        

 cryst.   s( 3) = (    -1          0          0      )
                  (     0          1          0      )
                  (     0          0         -1      )

 cart.    s( 3) = ( -1.0000000  0.0000000  0.0000000 )
                  (  0.0000000  1.0000000  0.0000000 )
                  (  0.0000000  0.0000000 -1.0000000 )


      isym =  4     180 deg rotation - cart. axis [1,0,0]        

 cryst.   s( 4) = (     1          0          0      )
                  (     0         -1          0      )
                  (     0          0         -1      )

 cart.    s( 4) = (  1.0000000  0.0000000  0.0000000 )
                  (  0.0000000 -1.0000000  0.0000000 )
                  (  0.0000000  0.0000000 -1.0000000 )


      isym =  5     180 deg rotation - cart. axis [1,1,0]        

 cryst.   s( 5) = (     0          1          0      )
                  (     1          0          0      )
                  (     0          0         -1      )

 cart.    s( 5) = (  0.0000000  1.0000000  0.0000000 )
                  (  1.0000000  0.0000000  0.0000000 )
                  (  0.0000000  0.0000000 -1.0000000 )


      isym =  6     180 deg rotation - cart. axis [1,-1,0]       

 cryst.   s( 6) = (     0         -1          0      )
                  (    -1          0          0      )
                  (     0          0         -1      )

 cart.    s( 6) = (  0.0000000 -1.0000000  0.0000000 )
                  ( -1.0000000  0.0000000  0.0000000 )
                  (  0.0000000  0.0000000 -1.0000000 )


      isym =  7      90 deg rotation - cart. axis [0,0,-1]       

 cryst.   s( 7) = (     0         -1          0      )
                  (     1          0          0      )
                  (     0          0          1      )

 cart.    s( 7) = (  0.0000000  1.0000000  0.0000000 )
                  ( -1.0000000  0.0000000  0.0000000 )
                  (  0.0000000  0.0000000  1.0000000 )


      isym =  8      90 deg rotation - cart. axis [0,0,1]        

 cryst.   s( 8) = (     0          1          0      )
                  (    -1          0          0      )
                  (     0          0          1      )

 cart.    s( 8) = (  0.0000000 -1.0000000  0.0000000 )
                  (  1.0000000  0.0000000  0.0000000 )
                  (  0.0000000  0.0000000  1.0000000 )


      isym =  9     180 deg rotation - cart. axis [1,0,1]        

 cryst.   s( 9) = (     0          0          1      )
                  (     0         -1          0      )
                  (     1          0          0      )

 cart.    s( 9) = (  0.0000000  0.0000000  1.0000000 )
                  (  0.0000000 -1.0000000  0.0000000 )
                  (  1.0000000  0.0000000  0.0000000 )


      isym = 10     180 deg rotation - cart. axis [-1,0,1]       

 cryst.   s(10) = (     0          0         -1      )
                  (     0         -1          0      )
                  (    -1          0          0      )

 cart.    s(10) = (  0.0000000  0.0000000 -1.0000000 )
                  (  0.0000000 -1.0000000  0.0000000 )
                  ( -1.0000000  0.0000000  0.0000000 )


      isym = 11      90 deg rotation - cart. axis [0,1,0]        

 cryst.   s(11) = (     0          0         -1      )
                  (     0          1          0      )
                  (     1          0          0      )

 cart.    s(11) = (  0.0000000  0.0000000  1.0000000 )
                  (  0.0000000  1.0000000  0.0000000 )
                  ( -1.0000000  0.0000000  0.0000000 )


      isym = 12      90 deg rotation - cart. axis [0,-1,0]       

 cryst.   s(12) = (     0          0          1      )
                  (     0          1          0      )
                  (    -1          0          0      )

 cart.    s(12) = (  0.0000000  0.0000000 -1.0000000 )
                  (  0.0000000  1.0000000  0.0000000 )
                  (  1.0000000  0.0000000  0.0000000 )


      isym = 13     180 deg rotation - cart. axis [0,1,1]        

 cryst.   s(13) = (    -1          0          0      )
                  (     0          0          1      )
                  (     0          1          0      )

 cart.    s(13) = ( -1.0000000  0.0000000  0.0000000 )
                  (  0.0000000  0.0000000  1.0000000 )
                  (  0.0000000  1.0000000  0.0000000 )


      isym = 14     180 deg rotation - cart. axis [0,1,-1]       

 cryst.   s(14) = (    -1          0          0      )
                  (     0          0         -1      )
                  (     0         -1          0      )

 cart.    s(14) = ( -1.0000000  0.0000000  0.0000000 )
                  (  0.0000000  0.0000000 -1.0000000 )
                  (  0.0000000 -1.0000000  0.0000000 )


      isym = 15      90 deg rotation - cart. axis [-1,0,0]       

 cryst.   s(15) = (     1          0          0      )
                  (     0          0         -1      )
                  (     0          1          0      )

 cart.    s(15) = (  1.0000000  0.0000000  0.0000000 )
                  (  0.0000000  0.0000000  1.0000000 )
                  (  0.0000000 -1.0000000  0.0000000 )


      isym = 16      90 deg rotation - cart. axis [1,0,0]        

 cryst.   s(16) = (     1          0          0      )
                  (     0          0          1      )
                  (     0         -1          0      )

 cart.    s(16) = (  1.0000000  0.0000000  0.0000000 )
                  (  0.0000000  0.0000000 -1.0000000 )
                  (  0.0000000  1.0000000  0.0000000 )


      isym = 17     120 deg rotation - cart. axis [-1,-1,-1]     

 cryst.   s(17) = (     0          0          1      )
                  (     1          0          0      )
                  (     0          1          0      )

 cart.    s(17) = (  0.0000000  1.0000000  0.0000000 )
                  (  0.0000000  0.0000000  1.0000000 )
                  (  1.0000000  0.0000000  0.0000000 )


      isym = 18     120 deg rotation - cart. axis [-1,1,1]       

 cryst.   s(18) = (     0          0         -1      )
                  (    -1          0          0      )
                  (     0          1          0      )

 cart.    s(18) = (  0.0000000 -1.0000000  0.0000000 )
                  (  0.0000000  0.0000000  1.0000000 )
                  ( -1.0000000  0.0000000  0.0000000 )


      isym = 19     120 deg rotation - cart. axis [1,1,-1]       

 cryst.   s(19) = (     0          0         -1      )
                  (     1          0          0      )
                  (     0         -1          0      )

 cart.    s(19) = (  0.0000000  1.0000000  0.0000000 )
                  (  0.0000000  0.0000000 -1.0000000 )
                  ( -1.0000000  0.0000000  0.0000000 )


      isym = 20     120 deg rotation - cart. axis [1,-1,1]       

 cryst.   s(20) = (     0          0          1      )
                  (    -1          0          0      )
                  (     0         -1          0      )

 cart.    s(20) = (  0.0000000 -1.0000000  0.0000000 )
                  (  0.0000000  0.0000000 -1.0000000 )
                  (  1.0000000  0.0000000  0.0000000 )


      isym = 21     120 deg rotation - cart. axis [1,1,1]        

 cryst.   s(21) = (     0          1          0      )
                  (     0          0          1      )
                  (     1          0          0      )

 cart.    s(21) = (  0.0000000  0.0000000  1.0000000 )
                  (  1.0000000  0.0000000  0.0000000 )
                  (  0.0000000  1.0000000  0.0000000 )


      isym = 22     120 deg rotation - cart. axis [-1,1,-1]      

 cryst.   s(22) = (     0         -1          0      )
                  (     0          0         -1      )
                  (     1          0          0      )

 cart.    s(22) = (  0.0000000  0.0000000  1.0000000 )
                  ( -1.0000000  0.0000000  0.0000000 )
                  (  0.0000000 -1.0000000  0.0000000 )


      isym = 23     120 deg rotation - cart. axis [1,-1,-1]      

 cryst.   s(23) = (     0         -1          0      )
                  (     0          0          1      )
                  (    -1          0          0      )

 cart.    s(23) = (  0.0000000  0.0000000 -1.0000000 )
                  ( -1.0000000  0.0000000  0.0000000 )
                  (  0.0000000  1.0000000  0.0000000 )


      isym = 24     120 deg rotation - cart. axis [-1,-1,1]      

 cryst.   s(24) = (     0          1          0      )
                  (     0          0         -1      )
                  (    -1          0          0      )

 cart.    s(24) = (  0.0000000  0.0000000 -1.0000000 )
                  (  1.0000000  0.0000000  0.0000000 )
                  (  0.0000000 -1.0000000  0.0000000 )


      isym = 25     inversion                                    

 cryst.   s(25) = (    -1          0          0      )
                  (     0         -1          0      )
                  (     0          0         -1      )

 cart.    s(25) = ( -1.0000000  0.0000000  0.0000000 )
                  (  0.0000000 -1.0000000  0.0000000 )
                  (  0.0000000  0.0000000 -1.0000000 )


      isym = 26     inv. 180 deg rotation - cart. axis [0,0,1]   

 cryst.   s(26) = (     1          0          0      )
                  (     0          1          0      )
                  (     0          0         -1      )

 cart.    s(26) = (  1.0000000  0.0000000  0.0000000 )
                  (  0.0000000  1.0000000  0.0000000 )
                  (  0.0000000  0.0000000 -1.0000000 )


      isym = 27     inv. 180 deg rotation - cart. axis [0,1,0]   

 cryst.   s(27) = (     1          0          0      )
                  (     0         -1          0      )
                  (     0          0          1      )

 cart.    s(27) = (  1.0000000  0.0000000  0.0000000 )
                  (  0.0000000 -1.0000000  0.0000000 )
                  (  0.0000000  0.0000000  1.0000000 )


      isym = 28     inv. 180 deg rotation - cart. axis [1,0,0]   

 cryst.   s(28) = (    -1          0          0      )
                  (     0          1          0      )
                  (     0          0          1      )

 cart.    s(28) = ( -1.0000000  0.0000000  0.0000000 )
                  (  0.0000000  1.0000000  0.0000000 )
                  (  0.0000000  0.0000000  1.0000000 )


      isym = 29     inv. 180 deg rotation - cart. axis [1,1,0]   

 cryst.   s(29) = (     0         -1          0      )
                  (    -1          0          0      )
                  (     0          0          1      )

 cart.    s(29) = (  0.0000000 -1.0000000  0.0000000 )
                  ( -1.0000000  0.0000000  0.0000000 )
                  (  0.0000000  0.0000000  1.0000000 )


      isym = 30     inv. 180 deg rotation - cart. axis [1,-1,0]  

 cryst.   s(30) = (     0          1          0      )
                  (     1          0          0      )
                  (     0          0          1      )

 cart.    s(30) = (  0.0000000  1.0000000  0.0000000 )
                  (  1.0000000  0.0000000  0.0000000 )
                  (  0.0000000  0.0000000  1.0000000 )


      isym = 31     inv.  90 deg rotation - cart. axis [0,0,-1]  

 cryst.   s(31) = (     0          1          0      )
                  (    -1          0          0      )
                  (     0          0         -1      )

 cart.    s(31) = (  0.0000000 -1.0000000  0.0000000 )
                  (  1.0000000  0.0000000  0.0000000 )
                  (  0.0000000  0.0000000 -1.0000000 )


      isym = 32     inv.  90 deg rotation - cart. axis [0,0,1]   

 cryst.   s(32) = (     0         -1          0      )
                  (     1          0          0      )
                  (     0          0         -1      )

 cart.    s(32) = (  0.0000000  1.0000000  0.0000000 )
                  ( -1.0000000  0.0000000  0.0000000 )
                  (  0.0000000  0.0000000 -1.0000000 )


      isym = 33     inv. 180 deg rotation - cart. axis [1,0,1]   

 cryst.   s(33) = (     0          0         -1      )
                  (     0          1          0      )
                  (    -1          0          0      )

 cart.    s(33) = (  0.0000000  0.0000000 -1.0000000 )
                  (  0.0000000  1.0000000  0.0000000 )
                  ( -1.0000000  0.0000000  0.0000000 )


      isym = 34     inv. 180 deg rotation - cart. axis [-1,0,1]  

 cryst.   s(34) = (     0          0          1      )
                  (     0          1          0      )
                  (     1          0          0      )

 cart.    s(34) = (  0.0000000  0.0000000  1.0000000 )
                  (  0.0000000  1.0000000  0.0000000 )
                  (  1.0000000  0.0000000  0.0000000 )


      isym = 35     inv.  90 deg rotation - cart. axis [0,1,0]   

 cryst.   s(35) = (     0          0          1      )
                  (     0         -1          0      )
                  (    -1          0          0      )

 cart.    s(35) = (  0.0000000  0.0000000 -1.0000000 )
                  (  0.0000000 -1.0000000  0.0000000 )
                  (  1.0000000  0.0000000  0.0000000 )


      isym = 36     inv.  90 deg rotation - cart. axis [0,-1,0]  

 cryst.   s(36) = (     0          0         -1      )
                  (     0         -1          0      )
                  (     1          0          0      )

 cart.    s(36) = (  0.0000000  0.0000000  1.0000000 )
                  (  0.0000000 -1.0000000  0.0000000 )
                  ( -1.0000000  0.0000000  0.0000000 )


      isym = 37     inv. 180 deg rotation - cart. axis [0,1,1]   

 cryst.   s(37) = (     1          0          0      )
                  (     0          0         -1      )
                  (     0         -1          0      )

 cart.    s(37) = (  1.0000000  0.0000000  0.0000000 )
                  (  0.0000000  0.0000000 -1.0000000 )
                  (  0.0000000 -1.0000000  0.0000000 )


      isym = 38     inv. 180 deg rotation - cart. axis [0,1,-1]  

 cryst.   s(38) = (     1          0          0      )
                  (     0          0          1      )
                  (     0          1          0      )

 cart.    s(38) = (  1.0000000  0.0000000  0.0000000 )
                  (  0.0000000  0.0000000  1.0000000 )
                  (  0.0000000  1.0000000  0.0000000 )


      isym = 39     inv.  90 deg rotation - cart. axis [-1,0,0]  

 cryst.   s(39) = (    -1          0          0      )
                  (     0          0          1      )
                  (     0         -1          0      )

 cart.    s(39) = ( -1.0000000  0.0000000  0.0000000 )
                  (  0.0000000  0.0000000 -1.0000000 )
                  (  0.0000000  1.0000000  0.0000000 )


      isym = 40     inv.  90 deg rotation - cart. axis [1,0,0]   

 cryst.   s(40) = (    -1          0          0      )
                  (     0          0         -1      )
                  (     0          1          0      )

 cart.    s(40) = ( -1.0000000  0.0000000  0.0000000 )
                  (  0.0000000  0.0000000  1.0000000 )
                  (  0.0000000 -1.0000000  0.0000000 )


      isym = 41     inv. 120 deg rotation - cart. axis [-1,-1,-1]

 cryst.   s(41) = (     0          0         -1      )
                  (    -1          0          0      )
                  (     0         -1          0      )

 cart.    s(41) = (  0.0000000 -1.0000000  0.0000000 )
                  (  0.0000000  0.0000000 -1.0000000 )
                  ( -1.0000000  0.0000000  0.0000000 )


      isym = 42     inv. 120 deg rotation - cart. axis [-1,1,1]  

 cryst.   s(42) = (     0          0          1      )
                  (     1          0          0      )
                  (     0         -1          0      )

 cart.    s(42) = (  0.0000000  1.0000000  0.0000000 )
                  (  0.0000000  0.0000000 -1.0000000 )
                  (  1.0000000  0.0000000  0.0000000 )


      isym = 43     inv. 120 deg rotation - cart. axis [1,1,-1]  

 cryst.   s(43) = (     0          0          1      )
                  (    -1          0          0      )
                  (     0          1          0      )

 cart.    s(43) = (  0.0000000 -1.0000000  0.0000000 )
                  (  0.0000000  0.0000000  1.0000000 )
                  (  1.0000000  0.0000000  0.0000000 )


      isym = 44     inv. 120 deg rotation - cart. axis [1,-1,1]  

 cryst.   s(44) = (     0          0         -1      )
                  (     1          0          0      )
                  (     0          1          0      )

 cart.    s(44) = (  0.0000000  1.0000000  0.0000000 )
                  (  0.0000000  0.0000000  1.0000000 )
                  ( -1.0000000  0.0000000  0.0000000 )


      isym = 45     inv. 120 deg rotation - cart. axis [1,1,1]   

 cryst.   s(45) = (     0         -1          0      )
                  (     0          0         -1      )
                  (    -1          0          0      )

 cart.    s(45) = (  0.0000000  0.0000000 -1.0000000 )
                  ( -1.0000000  0.0000000  0.0000000 )
                  (  0.0000000 -1.0000000  0.0000000 )


      isym = 46     inv. 120 deg rotation - cart. axis [-1,1,-1] 

 cryst.   s(46) = (     0          1          0      )
                  (     0          0          1      )
                  (    -1          0          0      )

 cart.    s(46) = (  0.0000000  0.0000000 -1.0000000 )
                  (  1.0000000  0.0000000  0.0000000 )
                  (  0.0000000  1.0000000  0.0000000 )


      isym = 47     inv. 120 deg rotation - cart. axis [1,-1,-1] 

 cryst.   s(47) = (     0          1          0      )
                  (     0          0         -1      )
                  (     1          0          0      )

 cart.    s(47) = (  0.0000000  0.0000000  1.0000000 )
                  (  1.0000000  0.0000000  0.0000000 )
                  (  0.0000000 -1.0000000  0.0000000 )


      isym = 48     inv. 120 deg rotation - cart. axis [-1,-1,1] 

 cryst.   s(48) = (     0         -1          0      )
                  (     0          0          1      )
                  (     1          0          0      )

 cart.    s(48) = (  0.0000000  0.0000000  1.0000000 )
                  ( -1.0000000  0.0000000  0.0000000 )
                  (  0.0000000  1.0000000  0.0000000 )


   Cartesian axes

     site n.     atom                  positions (alat units)
         1        Zn     tau(   1) = (   0.0000000   0.0000000   0.0000000  )
         2        O      tau(   2) = (   0.5000000   0.5000000   0.5000000  )

   Crystallographic axes

     site n.     atom                  positions (cryst. coord.)
         1        Zn     tau(   1) = (  0.0000000  0.0000000  0.0000000  )
         2        O      tau(   2) = (  0.5000000  0.5000000  0.5000000  )

     number of k points=    35  Marzari-Vanderbilt smearing, width (Ry)=  0.0147
                       cart. coord. in units 2pi/alat
        k(    1) = (   0.0000000   0.0000000   0.0000000), wk =   0.0039062
        k(    2) = (   0.0000000   0.0000000   0.1250000), wk =   0.0234375
        k(    3) = (   0.0000000   0.0000000   0.2500000), wk =   0.0234375
        k(    4) = (   0.0000000   0.0000000   0.3750000), wk =   0.0234375
        k(    5) = (   0.0000000   0.0000000  -0.5000000), wk =   0.0117188
        k(    6) = (   0.0000000   0.1250000   0.1250000), wk =   0.0468750
        k(    7) = (   0.0000000   0.1250000   0.2500000), wk =   0.0937500
        k(    8) = (   0.0000000   0.1250000   0.3750000), wk =   0.0937500
        k(    9) = (   0.0000000   0.1250000  -0.5000000), wk =   0.0468750
        k(   10) = (   0.0000000   0.2500000   0.2500000), wk =   0.0468750
        k(   11) = (   0.0000000   0.2500000   0.3750000), wk =   0.0937500
        k(   12) = (   0.0000000   0.2500000  -0.5000000), wk =   0.0468750
        k(   13) = (   0.0000000   0.3750000   0.3750000), wk =   0.0468750
        k(   14) = (   0.0000000   0.3750000  -0.5000000), wk =   0.0468750
        k(   15) = (   0.0000000  -0.5000000  -0.5000000), wk =   0.0117188
        k(   16) = (   0.1250000   0.1250000   0.1250000), wk =   0.0312500
        k(   17) = (   0.1250000   0.1250000   0.2500000), wk =   0.0937500
        k(   18) = (   0.1250000   0.1250000   0.3750000), wk =   0.0937500
        k(   19) = (   0.1250000   0.1250000  -0.5000000), wk =   0.0468750
        k(   20) = (   0.1250000   0.2500000   0.2500000), wk =   0.0937500
        k(   21) = (   0.1250000   0.2500000   0.3750000), wk =   0.1875000
        k(   22) = (   0.1250000   0.2500000  -0.5000000), wk =   0.0937500
        k(   23) = (   0.1250000   0.3750000   0.3750000), wk =   0.0937500
        k(   24) = (   0.1250000   0.3750000  -0.5000000), wk =   0.0937500
        k(   25) = (   0.1250000  -0.5000000  -0.5000000), wk =   0.0234375
        k(   26) = (   0.2500000   0.2500000   0.2500000), wk =   0.0312500
        k(   27) = (   0.2500000   0.2500000   0.3750000), wk =   0.0937500
        k(   28) = (   0.2500000   0.2500000  -0.5000000), wk =   0.0468750
        k(   29) = (   0.2500000   0.3750000   0.3750000), wk =   0.0937500
        k(   30) = (   0.2500000   0.3750000  -0.5000000), wk =   0.0937500
        k(   31) = (   0.2500000  -0.5000000  -0.5000000), wk =   0.0234375
        k(   32) = (   0.3750000   0.3750000   0.3750000), wk =   0.0312500
        k(   33) = (   0.3750000   0.3750000  -0.5000000), wk =   0.0468750
        k(   34) = (   0.3750000  -0.5000000  -0.5000000), wk =   0.0234375
        k(   35) = (  -0.5000000  -0.5000000  -0.5000000), wk =   0.0039062

                       cryst. coord.
        k(    1) = (   0.0000000   0.0000000   0.0000000), wk =   0.0039062
        k(    2) = (   0.0000000   0.0000000   0.1250000), wk =   0.0234375
        k(    3) = (   0.0000000   0.0000000   0.2500000), wk =   0.0234375
        k(    4) = (   0.0000000   0.0000000   0.3750000), wk =   0.0234375
        k(    5) = (   0.0000000   0.0000000  -0.5000000), wk =   0.0117188
        k(    6) = (   0.0000000   0.1250000   0.1250000), wk =   0.0468750
        k(    7) = (   0.0000000   0.1250000   0.2500000), wk =   0.0937500
        k(    8) = (   0.0000000   0.1250000   0.3750000), wk =   0.0937500
        k(    9) = (   0.0000000   0.1250000  -0.5000000), wk =   0.0468750
        k(   10) = (   0.0000000   0.2500000   0.2500000), wk =   0.0468750
        k(   11) = (   0.0000000   0.2500000   0.3750000), wk =   0.0937500
        k(   12) = (   0.0000000   0.2500000  -0.5000000), wk =   0.0468750
        k(   13) = (   0.0000000   0.3750000   0.3750000), wk =   0.0468750
        k(   14) = (   0.0000000   0.3750000  -0.5000000), wk =   0.0468750
        k(   15) = (   0.0000000  -0.5000000  -0.5000000), wk =   0.0117188
        k(   16) = (   0.1250000   0.1250000   0.1250000), wk =   0.0312500
        k(   17) = (   0.1250000   0.1250000   0.2500000), wk =   0.0937500
        k(   18) = (   0.1250000   0.1250000   0.3750000), wk =   0.0937500
        k(   19) = (   0.1250000   0.1250000  -0.5000000), wk =   0.0468750
        k(   20) = (   0.1250000   0.2500000   0.2500000), wk =   0.0937500
        k(   21) = (   0.1250000   0.2500000   0.3750000), wk =   0.1875000
        k(   22) = (   0.1250000   0.2500000  -0.5000000), wk =   0.0937500
        k(   23) = (   0.1250000   0.3750000   0.3750000), wk =   0.0937500
        k(   24) = (   0.1250000   0.3750000  -0.5000000), wk =   0.0937500
        k(   25) = (   0.1250000  -0.5000000  -0.5000000), wk =   0.0234375
        k(   26) = (   0.2500000   0.2500000   0.2500000), wk =   0.0312500
        k(   27) = (   0.2500000   0.2500000   0.3750000), wk =   0.0937500
        k(   28) = (   0.2500000   0.2500000  -0.5000000), wk =   0.0468750
        k(   29) = (   0.2500000   0.3750000   0.3750000), wk =   0.0937500
        k(   30) = (   0.2500000   0.3750000  -0.5000000), wk =   0.0937500
        k(   31) = (   0.2500000  -0.5000000  -0.5000000), wk =   0.0234375
        k(   32) = (   0.3750000   0.3750000   0.3750000), wk =   0.0312500
        k(   33) = (   0.3750000   0.3750000  -0.5000000), wk =   0.0468750
        k(   34) = (   0.3750000  -0.5000000  -0.5000000), wk =   0.0234375
        k(   35) = (  -0.5000000  -0.5000000  -0.5000000), wk =   0.0039062

     Dense  grid:    17845 G-vectors     FFT dimensions: (  36,  36,  36)

     Smooth grid:     6355 G-vectors     FFT dimensions: (  24,  24,  24)

     Dynamical RAM for                 wfc:       0.20 MB

     Dynamical RAM for     wfc (w. buffer):       7.34 MB

     Dynamical RAM for           str. fact:       0.54 MB

     Dynamical RAM for           local pot:       0.00 MB

     Dynamical RAM for          nlocal pot:       0.31 MB

     Dynamical RAM for                qrad:       3.21 MB

     Dynamical RAM for          rho,v,vnew:       1.88 MB

     Dynamical RAM for               rhoin:       0.63 MB

     Dynamical RAM for            rho*nmix:       4.36 MB

     Dynamical RAM for           G-vectors:       1.07 MB

     Dynamical RAM for          h,s,v(r/c):       0.05 MB

     Dynamical RAM for          <psi|beta>:       0.01 MB

     Dynamical RAM for                 psi:       0.41 MB

     Dynamical RAM for                hpsi:       0.41 MB

     Dynamical RAM for                spsi:       0.41 MB

     Dynamical RAM for      wfcinit/wfcrot:       0.41 MB

     Dynamical RAM for           addusdens:      50.92 MB

     Dynamical RAM for          addusforce:      51.06 MB

     Dynamical RAM for         addusstress:      54.73 MB

     Estimated static dynamical RAM per process >      17.59 MB

     Estimated max dynamical RAM per process >      76.67 MB

     Check: negative core charge=   -0.000003

     Initial potential from superposition of free atoms

     starting charge      25.9999, renormalised to      26.0000
     Starting wfcs are   17 randomized atomic wfcs
     Checking if some PAW data can be deallocated... 

     total cpu time spent up to now is        3.8 secs

     Self-consistent Calculation

     iteration #  1     ecut=    50.00 Ry     beta= 0.40
     Davidson diagonalization with overlap

---- Real-time Memory Report at c_bands before calling an iterative solver
            96 MiB given to the printing process from OS
             0 MiB allocation reported by mallinfo(arena+hblkhd)
          4354 MiB available memory on the node where the printing process lives
------------------
     ethr =  1.00E-02,  avg # of iterations =  2.7

     total cpu time spent up to now is        7.4 secs

     WARNING: integrated charge=    26.00002073, expected=    26.00000000

     total energy              =    -503.03972417 Ry
     estimated scf accuracy    <       0.46870791 Ry

     iteration #  2     ecut=    50.00 Ry     beta= 0.40
     Davidson diagonalization with overlap

---- Real-time Memory Report at c_bands before calling an iterative solver
           118 MiB given to the printing process from OS
             0 MiB allocation reported by mallinfo(arena+hblkhd)
          4338 MiB available memory on the node where the printing process lives
------------------
     ethr =  1.80E-03,  avg # of iterations =  2.3

     total cpu time spent up to now is       11.0 secs

     WARNING: integrated charge=    26.00001465, expected=    26.00000000

     total energy              =    -503.16716353 Ry
     estimated scf accuracy    <       0.07893155 Ry

     iteration #  3     ecut=    50.00 Ry     beta= 0.40
     Davidson diagonalization with overlap

---- Real-time Memory Report at c_bands before calling an iterative solver
           118 MiB given to the printing process from OS
             0 MiB allocation reported by mallinfo(arena+hblkhd)
          4335 MiB available memory on the node where the printing process lives
------------------
     ethr =  3.04E-04,  avg # of iterations =  2.2
     Minimization algorithm failed to find Fermi energy: reverting to bisection
     Possible cause: smearing is larger than the electronic band-gap.

     total cpu time spent up to now is       27.0 secs

     WARNING: integrated charge=    26.00000662, expected=    26.00000000

     total energy              =    -503.17887947 Ry
     estimated scf accuracy    <       0.00500612 Ry

     iteration #  4     ecut=    50.00 Ry     beta= 0.40
     Davidson diagonalization with overlap

---- Real-time Memory Report at c_bands before calling an iterative solver
           118 MiB given to the printing process from OS
             0 MiB allocation reported by mallinfo(arena+hblkhd)
          4329 MiB available memory on the node where the printing process lives
------------------
     ethr =  1.93E-05,  avg # of iterations =  2.5
     Minimization algorithm failed to find Fermi energy: reverting to bisection
     Possible cause: smearing is larger than the electronic band-gap.

     total cpu time spent up to now is       30.9 secs

     total energy              =    -503.17890700 Ry
     estimated scf accuracy    <       0.00073237 Ry

     iteration #  5     ecut=    50.00 Ry     beta= 0.40
     Davidson diagonalization with overlap

---- Real-time Memory Report at c_bands before calling an iterative solver
           119 MiB given to the printing process from OS
             0 MiB allocation reported by mallinfo(arena+hblkhd)
          4330 MiB available memory on the node where the printing process lives
------------------
     ethr =  2.82E-06,  avg # of iterations =  2.1
     Minimization algorithm failed to find Fermi energy: reverting to bisection
     Possible cause: smearing is larger than the electronic band-gap.

     total cpu time spent up to now is       34.4 secs

     total energy              =    -503.17896984 Ry
     estimated scf accuracy    <       0.00000829 Ry

     iteration #  6     ecut=    50.00 Ry     beta= 0.40
     Davidson diagonalization with overlap

---- Real-time Memory Report at c_bands before calling an iterative solver
           119 MiB given to the printing process from OS
             0 MiB allocation reported by mallinfo(arena+hblkhd)
          4330 MiB available memory on the node where the printing process lives
------------------
     ethr =  3.19E-08,  avg # of iterations =  2.1

     total cpu time spent up to now is       39.6 secs

     WARNING: integrated charge=    26.00129328, expected=    26.00000000

     total energy              =    -503.17484098 Ry
     estimated scf accuracy    <       0.00001466 Ry

     iteration #  7     ecut=    50.00 Ry     beta= 0.40
     Davidson diagonalization with overlap

---- Real-time Memory Report at c_bands before calling an iterative solver
           119 MiB given to the printing process from OS
             0 MiB allocation reported by mallinfo(arena+hblkhd)
          4330 MiB available memory on the node where the printing process lives
------------------
     ethr =  3.19E-08,  avg # of iterations =  1.6

     total cpu time spent up to now is       44.6 secs

     WARNING: integrated charge=    26.00087792, expected=    26.00000000

     total energy              =    -503.17897236 Ry
     estimated scf accuracy    <       0.00000467 Ry

     iteration #  8     ecut=    50.00 Ry     beta= 0.40
     Davidson diagonalization with overlap

---- Real-time Memory Report at c_bands before calling an iterative solver
           119 MiB given to the printing process from OS
             0 MiB allocation reported by mallinfo(arena+hblkhd)
          4331 MiB available memory on the node where the printing process lives
------------------
     ethr =  1.80E-08,  avg # of iterations =  2.0
     Minimization algorithm failed to find Fermi energy: reverting to bisection
     Possible cause: smearing is larger than the electronic band-gap.

     total cpu time spent up to now is       56.9 secs

     WARNING: integrated charge=    26.00027500, expected=    26.00000000

     total energy              =    -503.17897312 Ry
     estimated scf accuracy    <       0.00000002 Ry

     iteration #  9     ecut=    50.00 Ry     beta= 0.40
     Davidson diagonalization with overlap

---- Real-time Memory Report at c_bands before calling an iterative solver
           119 MiB given to the printing process from OS
             0 MiB allocation reported by mallinfo(arena+hblkhd)
          4329 MiB available memory on the node where the printing process lives
------------------
     ethr =  9.29E-11,  avg # of iterations =  2.0
     Minimization algorithm failed to find Fermi energy: reverting to bisection
     Possible cause: smearing is larger than the electronic band-gap.

     total cpu time spent up to now is       60.4 secs

     WARNING: integrated charge=    26.00011206, expected=    26.00000000

     total energy              =    -503.17897312 Ry
     estimated scf accuracy    <       0.00000004 Ry

     iteration # 10     ecut=    50.00 Ry     beta= 0.40
     Davidson diagonalization with overlap

---- Real-time Memory Report at c_bands before calling an iterative solver
           120 MiB given to the printing process from OS
             0 MiB allocation reported by mallinfo(arena+hblkhd)
          4329 MiB available memory on the node where the printing process lives
------------------
     ethr =  9.29E-11,  avg # of iterations =  2.0
     Minimization algorithm failed to find Fermi energy: reverting to bisection
     Possible cause: smearing is larger than the electronic band-gap.

     total cpu time spent up to now is       63.6 secs

     End of self-consistent calculation

          k = 0.0000 0.0000 0.0000 (   751 PWs)   bands (ev):

  -112.3513 -66.5322 -66.5322 -66.5322  -6.0161   5.9424   5.9424   7.0073
     7.0073   7.0073  11.2241  11.2241  11.2241  11.5403  26.4796  26.4796
    29.7166

     occupation numbers 
     1.0000   1.0000   1.0000   1.0000   1.0000   1.0000   1.0000   1.0000
     1.0000   1.0000   1.0000   1.0000   1.0000   1.0000   0.0000   0.0000
     0.0000

          k = 0.0000 0.0000 0.1250 (   775 PWs)   bands (ev):

  -112.3511 -66.5350 -66.5322 -66.5322  -5.8641   5.9606   5.9616   6.9095
     6.9095   7.0121   9.5189  11.4021  11.4021  13.1416  25.1692  26.7059
    29.5125

     occupation numbers 
     1.0000   1.0000   1.0000   1.0000   1.0000   1.0000   1.0000   1.0000
     1.0000   1.0000   1.0000   1.0000   1.0000   0.0000   0.0000   0.0000
     0.0000

          k = 0.0000 0.0000 0.2500 (   799 PWs)   bands (ev):

  -112.3508 -66.5413 -66.5319 -66.5319  -5.4641   5.7135   6.0081   6.6956
     6.6956   7.0240   8.1569  11.8205  11.8205  14.6854  22.8434  27.3907
    28.9355

     occupation numbers 
     1.0000   1.0000   1.0000   1.0000   1.0000   1.0000   1.0000   1.0000
     1.0000   1.0000   1.0000   1.0005   1.0005   0.0000   0.0000   0.0000
     0.0000

          k = 0.0000 0.0000 0.3750 (   792 PWs)   bands (ev):

  -112.3503 -66.5473 -66.5315 -66.5315  -5.0025   4.8939   6.0551   6.5058
     6.5058   7.0360   7.8449  12.2328  12.2328  16.1986  20.4568  28.2665
    28.2665

     occupation numbers 
     1.0000   1.0000   1.0000   1.0000   1.0000   1.0000   1.0000   1.0000
     1.0000   1.0000   1.0000   1.0667   1.0667   0.0000   0.0000   0.0000
     0.0000

          k = 0.0000 0.0000-0.5000 (   804 PWs)   bands (ev):

  -112.3502 -66.5500 -66.5314 -66.5314  -4.7868   4.4451   6.0746   6.4326
     6.4326   7.0409   7.8739  12.4041  12.4041  17.4487  18.8404  27.9696
    27.9696

     occupation numbers 
     1.0000   1.0000   1.0000   1.0000   1.0000   1.0000   1.0000   1.0000
     1.0000   1.0000   1.0000   0.6354   0.6354   0.0000   0.0000   0.0000
     0.0000

          k = 0.0000 0.1250 0.1250 (   774 PWs)   bands (ev):

  -112.3510 -66.5349 -66.5346 -66.5320  -5.7180   5.9701   6.0153   6.7940
     6.8778   6.9680   9.2336  10.7544  11.5493  14.1331  25.1143  25.5842
    29.4151

     occupation numbers 
     1.0000   1.0000   1.0000   1.0000   1.0000   1.0000   1.0000   1.0000
     1.0000   1.0000   1.0000   1.0000   1.0000   0.0000   0.0000   0.0000
     0.0000

          k = 0.0000 0.1250 0.2500 (   782 PWs)   bands (ev):

  -112.3506 -66.5409 -66.5343 -66.5317  -5.3352   5.7963   6.0626   6.6112
     6.7101   6.9684   8.2609  10.8446  11.8975  15.4812  22.8930  25.6288
    29.0805

     occupation numbers 
     1.0000   1.0000   1.0000   1.0000   1.0000   1.0000   1.0000   1.0000
     1.0000   1.0000   1.0000   1.0000   1.0028   0.0000   0.0000   0.0000
     0.0000

          k = 0.0000 0.1250 0.3750 (   787 PWs)   bands (ev):

  -112.3502 -66.5471 -66.5339 -66.5313  -4.8968   5.0946   6.1141   6.4946
     6.5417   6.9869   7.8754  11.2714  12.2413  16.8090  20.4349  25.9034
    28.6167

     occupation numbers 
     1.0000   1.0000   1.0000   1.0000   1.0000   1.0000   1.0000   1.0000
     1.0000   1.0000   1.0000   1.0000   1.0594   0.0000   0.0000   0.0000
     0.0000

          k = 0.0000 0.1250-0.5000 (   800 PWs)   bands (ev):

  -112.3500 -66.5498 -66.5338 -66.5312  -4.6935   4.6946   6.1420   6.4264
     6.4754   6.9951   7.8761  11.4797  12.3839  18.3332  18.4343  26.0126
    28.3930

     occupation numbers 
     1.0000   1.0000   1.0000   1.0000   1.0000   1.0000   1.0000   1.0000
     1.0000   1.0000   1.0000   1.0000   0.7105   0.0000   0.0000   0.0000
     0.0000

          k = 0.0000 0.2500 0.2500 (   784 PWs)   bands (ev):

  -112.3502 -66.5406 -66.5403 -66.5312  -5.0010   5.8057   6.2544   6.4936
     6.7126   6.8729   8.3034   9.6545  12.0800  16.5246  22.4627  23.6713
    29.3886

     occupation numbers 
     1.0000   1.0000   1.0000   1.0000   1.0000   1.0000   1.0000   1.0000
     1.0000   1.0000   1.0000   1.0000   1.0466   0.0000   0.0000   0.0000
     0.0000

          k = 0.0000 0.2500 0.3750 (   788 PWs)   bands (ev):

  -112.3498 -66.5465 -66.5399 -66.5309  -4.6263   5.5560   6.3200   6.4949
     6.6286   6.8721   7.9505   9.6205  12.2593  17.1075  20.7144  23.7242
    29.5883

     occupation numbers 
     1.0000   1.0000   1.0000   1.0000   1.0000   1.0000   1.0000   1.0000
     1.0000   1.0000   1.0000   1.0000   1.0393   0.0000   0.0000   0.0000
     0.0000

          k = 0.0000 0.2500-0.5000 (   782 PWs)   bands (ev):

  -112.3496 -66.5491 -66.5397 -66.5306  -4.4560   5.3572   6.3371   6.4450
     6.5814   6.8865   7.8696   9.7954  12.3329  17.2342  20.0027  23.8753
    29.6222

     occupation numbers 
     1.0000   1.0000   1.0000   1.0000   1.0000   1.0000   1.0000   1.0000
     1.0000   1.0000   1.0000   1.0000   0.8810   0.0000   0.0000   0.0000
     0.0000

          k = 0.0000 0.3750 0.3750 (   782 PWs)   bands (ev):

  -112.3494 -66.5460 -66.5459 -66.5304  -4.3302   5.8957   6.5286   6.7016
     6.7018   6.7771   7.9569   8.4579  12.2736  16.2871  21.4203  22.7494
    29.4061

     occupation numbers 
     1.0000   1.0000   1.0000   1.0000   1.0000   1.0000   1.0000   1.0000
     1.0000   1.0000   1.0000   1.0000   1.0181   0.0000   0.0000   0.0000
     0.0000

          k = 0.0000 0.3750-0.5000 (   788 PWs)   bands (ev):

  -112.3492 -66.5486 -66.5458 -66.5302  -4.1984   6.0255   6.5834   6.6908
     6.7611   6.7805   7.7977   8.3290  12.2785  15.7288  21.6196  22.7499
    28.7941

     occupation numbers 
     1.0000   1.0000   1.0000   1.0000   1.0000   1.0000   1.0000   1.0000
     1.0000   1.0000   1.0000   1.0000   1.0098   0.0000   0.0000   0.0000
     0.0000

          k = 0.0000-0.5000-0.5000 (   784 PWs)   bands (ev):

  -112.3490 -66.5483 -66.5483 -66.5300  -4.0848   6.2112   6.7373   6.7373
     6.7980   7.2608   7.6156   7.6156  12.2549  15.0067  22.4188  22.4188
    28.0405

     occupation numbers 
     1.0000   1.0000   1.0000   1.0000   1.0000   1.0000   1.0000   1.0000
     1.0000   1.0000   1.0000   1.0000   1.0448   0.0000   0.0000   0.0000
     0.0000

          k = 0.1250 0.1250 0.1250 (   772 PWs)   bands (ev):

  -112.3508 -66.5347 -66.5344 -66.5344  -5.5773   6.0358   6.0358   6.7437
     6.8582   6.8582   9.0233  10.9562  10.9562  14.8772  25.1354  25.1354
    27.5703

     occupation numbers 
     1.0000   1.0000   1.0000   1.0000   1.0000   1.0000   1.0000   1.0000
     1.0000   1.0000   1.0000   1.0000   1.0000   0.0000   0.0000   0.0000
     0.0000

          k = 0.1250 0.1250 0.2500 (   791 PWs)   bands (ev):

  -112.3504 -66.5408 -66.5343 -66.5342  -5.2096   5.9169   6.0881   6.6196
     6.6591   6.8862   8.2936  10.7001  11.4305  16.0042  23.0025  25.1210
    27.5441

     occupation numbers 
     1.0000   1.0000   1.0000   1.0000   1.0000   1.0000   1.0000   1.0000
     1.0000   1.0000   1.0000   1.0000   1.0000   0.0000   0.0000   0.0000
     0.0000

          k = 0.1250 0.1250 0.3750 (   792 PWs)   bands (ev):

  -112.3500 -66.5469 -66.5338 -66.5338  -4.7914   5.2875   6.1540   6.3978
     6.6588   6.9242   7.9206  10.9079  11.9029  17.1137  20.5877  24.9613
    28.0922

     occupation numbers 
     1.0000   1.0000   1.0000   1.0000   1.0000   1.0000   1.0000   1.0000
     1.0000   1.0000   1.0000   1.0000   1.0031   0.0000   0.0000   0.0000
     0.0000

          k = 0.1250 0.1250-0.5000 (   786 PWs)   bands (ev):

  -112.3498 -66.5494 -66.5336 -66.5335  -4.5986   4.9223   6.2103   6.2838
     6.6306   6.9407   7.9140  11.0431  12.1018  18.1830  18.9669  24.8362
    28.3524

     occupation numbers 
     1.0000   1.0000   1.0000   1.0000   1.0000   1.0000   1.0000   1.0000
     1.0000   1.0000   1.0000   1.0000   1.0568   0.0000   0.0000   0.0000
     0.0000

          k = 0.1250 0.2500 0.2500 (   784 PWs)   bands (ev):

  -112.3500 -66.5404 -66.5401 -66.5338  -4.8847   5.9583   6.2294   6.5202
     6.7122   6.7683   8.1924   9.9338  11.5267  16.7353  22.7807  23.3981
    27.4842

     occupation numbers 
     1.0000   1.0000   1.0000   1.0000   1.0000   1.0000   1.0000   1.0000
     1.0000   1.0000   1.0000   1.0000   1.0000   0.0000   0.0000   0.0000
     0.0000

          k = 0.1250 0.2500 0.3750 (   785 PWs)   bands (ev):

  -112.3496 -66.5463 -66.5397 -66.5333  -4.5214   5.7008   6.2224   6.4168
     6.7772   6.8191   7.9970   9.7257  11.8444  17.1608  20.9604  23.1399
    28.3235

     occupation numbers 
     1.0000   1.0000   1.0000   1.0000   1.0000   1.0000   1.0000   1.0000
     1.0000   1.0000   1.0000   1.0000   1.0009   0.0000   0.0000   0.0000
     0.0000

          k = 0.1250 0.2500-0.5000 (   788 PWs)   bands (ev):

  -112.3494 -66.5489 -66.5396 -66.5331  -4.3567   5.4949   6.1747   6.3897
     6.7676   6.8514   8.0134   9.7685  11.9933  17.2818  20.2006  23.0120
    28.9260

     occupation numbers 
     1.0000   1.0000   1.0000   1.0000   1.0000   1.0000   1.0000   1.0000
     1.0000   1.0000   1.0000   1.0000   1.0156   0.0000   0.0000   0.0000
     0.0000

          k = 0.1250 0.3750 0.3750 (   780 PWs)   bands (ev):

  -112.3492 -66.5458 -66.5456 -66.5329  -4.2255   5.9192   6.3118   6.4257
     6.8088   6.9467   8.0504   8.8699  11.9410  16.4330  21.2376  22.2180
    29.0205

     occupation numbers 
     1.0000   1.0000   1.0000   1.0000   1.0000   1.0000   1.0000   1.0000
     1.0000   1.0000   1.0000   1.0000   1.0065   0.0000   0.0000   0.0000
     0.0000

          k = 0.1250 0.3750-0.5000 (   790 PWs)   bands (ev):

  -112.3490 -66.5483 -66.5457 -66.5327  -4.0937   6.0370   6.1821   6.4621
     6.7543   7.0356   8.1644   8.6627  11.9954  15.9212  21.3103  22.0459
    29.3343

     occupation numbers 
     1.0000   1.0000   1.0000   1.0000   1.0000   1.0000   1.0000   1.0000
     1.0000   1.0000   1.0000   1.0000   1.0161   0.0000   0.0000   0.0000
     0.0000

          k = 0.1250-0.5000-0.5000 (   796 PWs)   bands (ev):

  -112.3489 -66.5481 -66.5481 -66.5327  -3.9774   6.2767   6.2767   6.3620
     6.6142   7.2634   8.2830   8.2830  12.0015  15.2142  21.7901  21.7901
    28.7418

     occupation numbers 
     1.0000   1.0000   1.0000   1.0000   1.0000   1.0000   1.0000   1.0000
     1.0000   1.0000   1.0000   1.0000   1.0176   0.0000   0.0000   0.0000
     0.0000

          k = 0.2500 0.2500 0.2500 (   784 PWs)   bands (ev):

  -112.3496 -66.5399 -66.5397 -66.5397  -4.5849   6.1192   6.1192   6.6287
     6.6287   6.8053   7.9361  10.5814  10.5814  17.0098  22.6277  22.6277
    26.1188

     occupation numbers 
     1.0000   1.0000   1.0000   1.0000   1.0000   1.0000   1.0000   1.0000
     1.0000   1.0000   1.0000   1.0000   1.0000   0.0000   0.0000   0.0000
     0.0000

          k = 0.2500 0.2500 0.3750 (   790 PWs)   bands (ev):

  -112.3492 -66.5459 -66.5394 -66.5392  -4.2523   5.8922   5.9638   6.5877
     6.7897   6.8202   8.0907   9.9199  11.2428  17.1522  21.1457  21.7102
    27.1010

     occupation numbers 
     1.0000   1.0000   1.0000   1.0000   1.0000   1.0000   1.0000   1.0000
     1.0000   1.0000   1.0000   1.0000   1.0000   0.0000   0.0000   0.0000
     0.0000

          k = 0.2500 0.2500-0.5000 (   780 PWs)   bands (ev):

  -112.3490 -66.5483 -66.5391 -66.5389  -4.1026   5.7080   5.8960   6.5845
     6.7332   6.8638   8.4115   9.6267  11.5334  17.2031  20.4180  21.2880
    27.9984

     occupation numbers 
     1.0000   1.0000   1.0000   1.0000   1.0000   1.0000   1.0000   1.0000
     1.0000   1.0000   1.0000   1.0000   1.0000   0.0000   0.0000   0.0000
     0.0000

          k = 0.2500 0.3750 0.3750 (   784 PWs)   bands (ev):

  -112.3488 -66.5454 -66.5452 -66.5388  -3.9563   5.7634   5.8753   6.5412
     6.6987   7.0118   8.5185   9.7680  11.2825  16.8060  20.4427  20.8883
    26.9674

     occupation numbers 
     1.0000   1.0000   1.0000   1.0000   1.0000   1.0000   1.0000   1.0000
     1.0000   1.0000   1.0000   1.0000   1.0000   0.0000   0.0000   0.0000
     0.0000

          k = 0.2500 0.3750-0.5000 (   784 PWs)   bands (ev):

  -112.3486 -66.5478 -66.5451 -66.5386  -3.8241   5.7503   5.7558   6.3784
     6.7118   7.1191   9.0140   9.4486  11.4598  16.4724  20.3563  20.3626
    27.1747

     occupation numbers 
     1.0000   1.0000   1.0000   1.0000   1.0000   1.0000   1.0000   1.0000
     1.0000   1.0000   1.0000   1.0000   1.0000   0.0000   0.0000   0.0000
     0.0000

          k = 0.2500-0.5000-0.5000 (   788 PWs)   bands (ev):

  -112.3485 -66.5476 -66.5476 -66.5385  -3.7001   5.7475   5.7475   6.1196
     6.7344   7.2696   9.3906   9.3906  11.5024  15.8712  20.2637  20.2637
    26.7773

     occupation numbers 
     1.0000   1.0000   1.0000   1.0000   1.0000   1.0000   1.0000   1.0000
     1.0000   1.0000   1.0000   1.0000   1.0000   0.0000   0.0000   0.0000
     0.0000

          k = 0.3750 0.3750 0.3750 (   786 PWs)   bands (ev):

  -112.3484 -66.5449 -66.5447 -66.5447  -3.6589   5.5810   5.5810   6.0642
     7.0396   7.0396   9.3080  10.6982  10.6982  17.1108  19.4647  19.4647
    25.2987

     occupation numbers 
     1.0000   1.0000   1.0000   1.0000   1.0000   1.0000   1.0000   1.0000
     1.0000   1.0000   1.0000   1.0000   1.0000   0.0000   0.0000   0.0000
     0.0000

          k = 0.3750 0.3750-0.5000 (   778 PWs)   bands (ev):

  -112.3482 -66.5472 -66.5446 -66.5445  -3.5256   5.4790   5.5034   5.8349
     7.0484   7.1807   9.9815  10.2209  11.1319  17.0849  18.8239  19.1941
    24.5827

     occupation numbers 
     1.0000   1.0000   1.0000   1.0000   1.0000   1.0000   1.0000   1.0000
     1.0000   1.0000   1.0000   1.0000   1.0000   0.0000   0.0000   0.0000
     0.0000

          k = 0.3750-0.5000-0.5000 (   780 PWs)   bands (ev):

  -112.3480 -66.5470 -66.5470 -66.5443  -3.3915   5.4137   5.4137   5.5549
     7.1172   7.2757  10.4812  10.4812  11.1281  16.9986  18.6518  18.6518
    23.3807

     occupation numbers 
     1.0000   1.0000   1.0000   1.0000   1.0000   1.0000   1.0000   1.0000
     1.0000   1.0000   1.0000   1.0000   1.0000   0.0000   0.0000   0.0000
     0.0000

          k =-0.5000-0.5000-0.5000 (   840 PWs)   bands (ev):

  -112.3480 -66.5473 -66.5473 -66.5473  -3.2524   5.3006   5.3006   5.3006
     7.2780   7.2780  11.0014  11.0014  11.0014  17.9140  17.9140  17.9140
    21.6636

     occupation numbers 
     1.0000   1.0000   1.0000   1.0000   1.0000   1.0000   1.0000   1.0000
     1.0000   1.0000   1.0000   1.0000   1.0000   0.0000   0.0000   0.0000
     0.0000

     the Fermi energy is    12.4681 ev

!    total energy              =    -503.17897312 Ry
     estimated scf accuracy    <          5.2E-09 Ry
     smearing contrib. (-TS)   =       0.00084229 Ry
     internal energy E=F+TS    =    -503.17981541 Ry

     The total energy is F=E-TS. E is the sum of the following terms:
     one-electron contribution =    -353.11156888 Ry
     hartree contribution      =     190.18426948 Ry
     xc contribution           =     -49.69870866 Ry
     ewald contribution        =    -281.02274351 Ry
     one-center paw contrib.   =      -9.53106383 Ry
      -> PAW hartree energy AE =      25.57802656 Ry
      -> PAW hartree energy PS =     -25.46425567 Ry
      -> PAW xc energy AE      =     -16.58990428 Ry
      -> PAW xc energy PS      =       6.94506956 Ry
      -> total E_H with PAW    =     190.29804037 Ry
      -> total E_XC with PAW   =     -59.34354338 Ry

     convergence has been achieved in  10 iterations

     Forces acting on atoms (cartesian axes, Ry/au):

     atom    1 type  2   force =     0.00000000    0.00000000    0.00000000
     atom    2 type  1   force =     0.00000000    0.00000000    0.00000000
     The non-local contrib.  to forces
     atom    1 type  2   force =     0.00000000    0.00000000    0.00000000
     atom    2 type  1   force =     0.00000000    0.00000000    0.00000000
     The ionic contribution  to forces
     atom    1 type  2   force =    -0.00000000   -0.00000000   -0.00000000
     atom    2 type  1   force =     0.00000000    0.00000000    0.00000000
     The local contribution  to forces
     atom    1 type  2   force =    -0.00000000    0.00000000    0.00000000
     atom    2 type  1   force =     0.00000000    0.00000000    0.00000000
     The core correction contribution to forces
     atom    1 type  2   force =     0.00000000    0.00000000    0.00000000
     atom    2 type  1   force =     0.00000000    0.00000000   -0.00000000
     The Hubbard contrib.    to forces
     atom    1 type  2   force =     0.00000000    0.00000000    0.00000000
     atom    2 type  1   force =     0.00000000    0.00000000    0.00000000
     The SCF correction term to forces
     atom    1 type  2   force =     0.00000000   -0.00000000    0.00000000
     atom    2 type  1   force =    -0.00000000    0.00000000    0.00000000

     Total force =     0.000000     Total SCF correction =     0.000000


     Computing stress (Cartesian axis) and pressure

          total   stress  (Ry/bohr**3)                   (kbar)     P=      -10.01
  -0.00006803   0.00000000   0.00000000          -10.01        0.00        0.00
   0.00000000  -0.00006803   0.00000000            0.00      -10.01        0.00
   0.00000000   0.00000000  -0.00006803            0.00        0.00      -10.01

     kinetic stress (kbar)  42451.63      0.00      0.00
                                0.00  42451.63      0.00
                                0.00      0.00  42451.63

     local   stress (kbar)  10046.23      0.00      0.00
                                0.00  10046.23      0.00
                                0.00      0.00  10046.23

     nonloc. stress (kbar)   -946.31      0.00      0.00
                                0.00   -946.31      0.00
                                0.00      0.00   -946.31

     hartree stress (kbar)  70848.22     -0.00     -0.00
                               -0.00  70848.22     -0.00
                               -0.00     -0.00  70848.22

     exc-cor stress (kbar) -17247.25      0.00     -0.00
                                0.00 -17247.25     -0.00
                               -0.00     -0.00 -17247.25

     corecor stress (kbar)   -474.79      0.00     -0.00
                                0.00   -474.79     -0.00
                               -0.00     -0.00   -474.79

     ewald   stress (kbar)-104687.74      0.00     -0.00
                                0.00-104687.74      0.00
                               -0.00      0.00-104687.74

     hubbard stress (kbar)      0.00      0.00      0.00
                                0.00      0.00      0.00
                                0.00      0.00      0.00

     DFT-D   stress (kbar)      0.00      0.00      0.00
                                0.00      0.00      0.00
                                0.00      0.00      0.00

     XDM     stress (kbar)      0.00      0.00      0.00
                                0.00      0.00      0.00
                                0.00      0.00      0.00

     dft-nl  stress (kbar)      0.00      0.00      0.00
                                0.00      0.00      0.00
                                0.00      0.00      0.00

     TS-vdW  stress (kbar)      0.00      0.00      0.00
                                0.00      0.00      0.00
                                0.00      0.00      0.00

     MDB     stress (kbar)      0.00      0.00      0.00
                                0.00      0.00      0.00
                                0.00      0.00      0.00

     3D-RISM stress (kbar)      0.00      0.00      0.00
                                0.00      0.00      0.00
                                0.00      0.00      0.00


     Writing all to output data dir ./temp_cubic/aiida.save/ :
     XML data file, charge density, pseudopotentials, collected wavefunctions

     init_run     :     62.64s CPU      2.85s WALL (       1 calls)
     electrons    :   1411.38s CPU     59.74s WALL (       1 calls)
     forces       :      5.06s CPU      0.24s WALL (       1 calls)
     stress       :     16.19s CPU      0.90s WALL (       1 calls)

     Called by init_run:
     wfcinit      :     58.08s CPU      2.44s WALL (       1 calls)
     wfcinit:atom :      1.19s CPU      0.05s WALL (      35 calls)
     wfcinit:wfcr :     55.02s CPU      2.32s WALL (      35 calls)
     potinit      :      1.56s CPU      0.08s WALL (       1 calls)
     hinit0       :      1.53s CPU      0.24s WALL (       1 calls)

     Called by electrons:
     c_bands      :   1167.47s CPU     48.97s WALL (      10 calls)
     sum_band     :    226.25s CPU      9.83s WALL (      10 calls)
     v_of_rho     :      3.17s CPU      0.13s WALL (      11 calls)
     v_h          :      0.62s CPU      0.02s WALL (      11 calls)
     v_xc         :      2.78s CPU      0.12s WALL (      13 calls)
     newd         :      7.34s CPU      0.50s WALL (      11 calls)
     PAW_pot      :      7.39s CPU      0.33s WALL (      11 calls)
     mix_rho      :      0.36s CPU      0.03s WALL (      10 calls)

     Called by c_bands:
     init_us_2    :     15.35s CPU      0.63s WALL (     805 calls)
     cegterg      :   1130.33s CPU     47.40s WALL (     350 calls)

     Called by sum_band:
     sum_band:wei :      0.44s CPU      0.01s WALL (      10 calls)
     sum_band:loo :    221.42s CPU      9.30s WALL (      10 calls)
     sum_band:buf :      0.23s CPU      0.01s WALL (     350 calls)
     sum_band:ini :      7.37s CPU      0.28s WALL (     350 calls)
     sum_band:cal :      4.11s CPU      0.19s WALL (     350 calls)
     sum_band:bec :     10.28s CPU      0.49s WALL (     350 calls)
     addusdens    :      4.05s CPU      0.47s WALL (      10 calls)
                                        0.00s GPU  (      10 calls)
     addusd:skk   :      0.00s CPU      0.00s WALL (      20 calls)
                                        0.00s GPU  (      20 calls)

     Called by *egterg:
     cdiaghg      :      7.79s CPU      0.31s WALL (    1104 calls)
     cegterg:over :     15.30s CPU      0.65s WALL (     754 calls)
     cegterg:upda :     23.05s CPU      0.89s WALL (     754 calls)
     cegterg:last :     25.58s CPU      0.99s WALL (     683 calls)
     h_psi        :   1037.58s CPU     43.63s WALL (    1139 calls)
     s_psi        :     14.57s CPU      0.53s WALL (    1139 calls)
     g_psi        :     16.20s CPU      0.76s WALL (     754 calls)

     Called by h_psi:
     h_psi:calbec :     11.92s CPU      0.50s WALL (    1139 calls)
     vloc_psi     :    984.86s CPU     41.38s WALL (    1139 calls)
     add_vuspsi   :     10.82s CPU      0.54s WALL (    1139 calls)

     General routines
     calbec       :     18.17s CPU      0.76s WALL (    1664 calls)
     fft          :      1.19s CPU      0.08s WALL (     166 calls)
     ffts         :      0.00s CPU      0.00s WALL (      21 calls)
     fftw         :     79.07s CPU      3.12s WALL (   34022 calls)
     interpolate  :      0.21s CPU      0.01s WALL (      11 calls)

     Parallel routines

     PAW routines
     PAW_pot      :      7.39s CPU      0.33s WALL (      11 calls)
     PAW_symme    :      0.00s CPU      0.00s WALL (      21 calls)

     PWSCF        :  25m 4.86s CPU   1m 5.90s WALL


   This run was terminated on:  23:48: 6   7Jun2024            

=------------------------------------------------------------------------------=
   JOB DONE.
=------------------------------------------------------------------------------=
