
     Program PWSCF v.7.3.1 starts on 13Jun2024 at 17:12:26 

     This program is part of the open-source Quantum ESPRESSO suite
     for quantum simulation of materials; please cite
         "P. Giannozzi et al., J. Phys.:Condens. Matter 21 395502 (2009);
         "P. Giannozzi et al., J. Phys.:Condens. Matter 29 465901 (2017);
         "P. Giannozzi et al., J. Chem. Phys. 152 154105 (2020);
          URL http://www.quantum-espresso.org", 
     in publications or presentations arising from this work. More details at
     http://www.quantum-espresso.org/quote

     Parallel version (MPI & OpenMP), running on      24 processor cores
     Number of MPI processes:                 1
     Threads/MPI process:                    24

     MPI processes distributed on     1 nodes
     5001 MiB available memory on the printing compute node when the environment starts

     Waiting for input...
     Reading input from standard input

     Current dimensions of program PWSCF are:
     Max number of different atomic species (ntypx) = 10
     Max number of k-points (npk) =  40000
     Max angular momentum in pseudopotentials (lmaxx) =  4
     file O.pbe-n-kjpaw_psl.0.1.UPF: wavefunction(s)  2P renormalized
     Message from routine setup:
     using ibrav=0 with symmetry is DISCOURAGED, use correct ibrav instead

     Subspace diagonalization in iterative solution of the eigenvalue problem:
     a serial algorithm will be used


     G-vector sticks info
     --------------------
     sticks:   dense  smooth     PW     G-vecs:    dense   smooth      PW
     Sum         825     413    137                17773     6295    1201

     Using Slab Decomposition



     bravais-lattice index     =            0
     lattice parameter (alat)  =       5.0871  a.u.
     unit-cell volume          =     131.6160 (a.u.)^3
     number of atoms/cell      =            2
     number of atomic types    =            2
     number of electrons       =        26.00
     number of Kohn-Sham states=           17
     kinetic-energy cutoff     =      50.0000  Ry
     charge density cutoff     =     400.0000  Ry
     scf convergence threshold =      1.0E-08
     mixing beta               =       0.4000
     number of iterations used =            8  plain     mixing
     Exchange-correlation= SLA  PW   PBE  PBE
                           (   1   4   3   4   0   0   0)

     celldm(1)=   5.087125  celldm(2)=   0.000000  celldm(3)=   0.000000
     celldm(4)=   0.000000  celldm(5)=   0.000000  celldm(6)=   0.000000

     crystal axes: (cart. coord. in units of alat)
               a(1) = (   0.999950   0.010000   0.000000 )  
               a(2) = (   0.010000   0.999950   0.000000 )  
               a(3) = (   0.000000   0.000000   0.999950 )  

     reciprocal axes: (cart. coord. in units 2 pi/alat)
               b(1) = (  1.000150 -0.010002  0.000000 )  
               b(2) = ( -0.010002  1.000150  0.000000 )  
               b(3) = (  0.000000  0.000000  1.000050 )  


     PseudoPot. # 1 for O  read from file:
     ../SSSP_1.3.0_PBE_efficiency/O.pbe-n-kjpaw_psl.0.1.UPF
     MD5 check sum: 0234752ac141de4415c5fc33072bef88
     Pseudo is Projector augmented-wave + core cor, Zval =  6.0
     Generated using "atomic" code by A. Dal Corso  v.5.0.99 svn rev. 10869
     Shape of augmentation charge: BESSEL
     Using radial grid of 1095 points,  4 beta functions with: 
                l(1) =   0
                l(2) =   0
                l(3) =   1
                l(4) =   1
     Q(r) pseudized with 0 coefficients 


     PseudoPot. # 2 for Zn read from file:
     ../SSSP_1.3.0_PBE_efficiency/Zn_pbe_v1.uspp.F.UPF
     MD5 check sum: df62231357ef9e81f77b2b3087fa5675
     Pseudo is Ultrasoft, Zval = 20.0
     Generated by new atomic code, or converted to UPF format
     Using radial grid of  943 points,  6 beta functions with: 
                l(1) =   0
                l(2) =   0
                l(3) =   1
                l(4) =   1
                l(5) =   2
                l(6) =   2
     Q(r) pseudized with  8 coefficients,  rinner =    1.100   1.100   1.100
                                                       1.100   1.100

     atomic species   valence    mass     pseudopotential
     O                 6.00    15.99940     O ( 1.00)
     Zn               20.00    65.38000     Zn( 1.00)

      8 Sym. Ops., with inversion, found


                                    s                        frac. trans.

      isym =  1     identity                                     

 cryst.   s( 1) = (     1          0          0      )
                  (     0          1          0      )
                  (     0          0          1      )

 cart.    s( 1) = (  1.0000000  0.0000000  0.0000000 )
                  (  0.0000000  1.0000000  0.0000000 )
                  (  0.0000000  0.0000000  1.0000000 )


      isym =  2     180 deg rotation - cart. axis [0,0,1]        

 cryst.   s( 2) = (    -1          0          0      )
                  (     0         -1          0      )
                  (     0          0          1      )

 cart.    s( 2) = ( -1.0000000  0.0000000  0.0000000 )
                  (  0.0000000 -1.0000000  0.0000000 )
                  (  0.0000000  0.0000000  1.0000000 )


      isym =  3     180 deg rotation - cart. axis [1,1,0]        

 cryst.   s( 3) = (     0          1          0      )
                  (     1          0          0      )
                  (     0          0         -1      )

 cart.    s( 3) = (  0.0000000  1.0000000  0.0000000 )
                  (  1.0000000  0.0000000  0.0000000 )
                  (  0.0000000  0.0000000 -1.0000000 )


      isym =  4     180 deg rotation - cart. axis [1,-1,0]       

 cryst.   s( 4) = (     0         -1          0      )
                  (    -1          0          0      )
                  (     0          0         -1      )

 cart.    s( 4) = (  0.0000000 -1.0000000  0.0000000 )
                  ( -1.0000000  0.0000000  0.0000000 )
                  (  0.0000000  0.0000000 -1.0000000 )


      isym =  5     inversion                                    

 cryst.   s( 5) = (    -1          0          0      )
                  (     0         -1          0      )
                  (     0          0         -1      )

 cart.    s( 5) = ( -1.0000000  0.0000000  0.0000000 )
                  (  0.0000000 -1.0000000  0.0000000 )
                  (  0.0000000  0.0000000 -1.0000000 )


      isym =  6     inv. 180 deg rotation - cart. axis [0,0,1]   

 cryst.   s( 6) = (     1          0          0      )
                  (     0          1          0      )
                  (     0          0         -1      )

 cart.    s( 6) = (  1.0000000  0.0000000  0.0000000 )
                  (  0.0000000  1.0000000  0.0000000 )
                  (  0.0000000  0.0000000 -1.0000000 )


      isym =  7     inv. 180 deg rotation - cart. axis [1,1,0]   

 cryst.   s( 7) = (     0         -1          0      )
                  (    -1          0          0      )
                  (     0          0          1      )

 cart.    s( 7) = (  0.0000000 -1.0000000  0.0000000 )
                  ( -1.0000000  0.0000000  0.0000000 )
                  (  0.0000000  0.0000000  1.0000000 )


      isym =  8     inv. 180 deg rotation - cart. axis [1,-1,0]  

 cryst.   s( 8) = (     0          1          0      )
                  (     1          0          0      )
                  (     0          0          1      )

 cart.    s( 8) = (  0.0000000  1.0000000  0.0000000 )
                  (  1.0000000  0.0000000  0.0000000 )
                  (  0.0000000  0.0000000  1.0000000 )


   Cartesian axes

     site n.     atom                  positions (alat units)
         1        Zn     tau(   1) = (   0.0000000   0.0000000   0.0000000  )
         2        O      tau(   2) = (   0.5049748   0.5049748   0.4999750  )

   Crystallographic axes

     site n.     atom                  positions (cryst. coord.)
         1        Zn     tau(   1) = (  0.0000000  0.0000000  0.0000000  )
         2        O      tau(   2) = (  0.5000000  0.5000000  0.5000000  )

     number of k points=   301  Marzari-Vanderbilt smearing, width (Ry)=  0.0147
                       cart. coord. in units 2pi/alat
        k(    1) = (   0.0000000   0.0000000   0.0000000), wk =   0.0011574
        k(    2) = (   0.0000000   0.0000000   0.0833375), wk =   0.0023148
        k(    3) = (   0.0000000   0.0000000   0.1666750), wk =   0.0023148
        k(    4) = (   0.0000000   0.0000000   0.2500125), wk =   0.0023148
        k(    5) = (   0.0000000   0.0000000   0.3333500), wk =   0.0023148
        k(    6) = (   0.0000000   0.0000000   0.4166875), wk =   0.0023148
        k(    7) = (   0.0000000   0.0000000  -0.5000250), wk =   0.0011574
        k(    8) = (  -0.0008335   0.0833458   0.0000000), wk =   0.0046296
        k(    9) = (  -0.0008335   0.0833458   0.0833375), wk =   0.0092593
        k(   10) = (  -0.0008335   0.0833458   0.1666750), wk =   0.0092593
        k(   11) = (  -0.0008335   0.0833458   0.2500125), wk =   0.0092593
        k(   12) = (  -0.0008335   0.0833458   0.3333500), wk =   0.0092593
        k(   13) = (  -0.0008335   0.0833458   0.4166875), wk =   0.0092593
        k(   14) = (  -0.0008335   0.0833458  -0.5000250), wk =   0.0046296
        k(   15) = (  -0.0016669   0.1666917   0.0000000), wk =   0.0046296
        k(   16) = (  -0.0016669   0.1666917   0.0833375), wk =   0.0092593
        k(   17) = (  -0.0016669   0.1666917   0.1666750), wk =   0.0092593
        k(   18) = (  -0.0016669   0.1666917   0.2500125), wk =   0.0092593
        k(   19) = (  -0.0016669   0.1666917   0.3333500), wk =   0.0092593
        k(   20) = (  -0.0016669   0.1666917   0.4166875), wk =   0.0092593
        k(   21) = (  -0.0016669   0.1666917  -0.5000250), wk =   0.0046296
        k(   22) = (  -0.0025004   0.2500375   0.0000000), wk =   0.0046296
        k(   23) = (  -0.0025004   0.2500375   0.0833375), wk =   0.0092593
        k(   24) = (  -0.0025004   0.2500375   0.1666750), wk =   0.0092593
        k(   25) = (  -0.0025004   0.2500375   0.2500125), wk =   0.0092593
        k(   26) = (  -0.0025004   0.2500375   0.3333500), wk =   0.0092593
        k(   27) = (  -0.0025004   0.2500375   0.4166875), wk =   0.0092593
        k(   28) = (  -0.0025004   0.2500375  -0.5000250), wk =   0.0046296
        k(   29) = (  -0.0033338   0.3333833   0.0000000), wk =   0.0046296
        k(   30) = (  -0.0033338   0.3333833   0.0833375), wk =   0.0092593
        k(   31) = (  -0.0033338   0.3333833   0.1666750), wk =   0.0092593
        k(   32) = (  -0.0033338   0.3333833   0.2500125), wk =   0.0092593
        k(   33) = (  -0.0033338   0.3333833   0.3333500), wk =   0.0092593
        k(   34) = (  -0.0033338   0.3333833   0.4166875), wk =   0.0092593
        k(   35) = (  -0.0033338   0.3333833  -0.5000250), wk =   0.0046296
        k(   36) = (  -0.0041673   0.4167292   0.0000000), wk =   0.0046296
        k(   37) = (  -0.0041673   0.4167292   0.0833375), wk =   0.0092593
        k(   38) = (  -0.0041673   0.4167292   0.1666750), wk =   0.0092593
        k(   39) = (  -0.0041673   0.4167292   0.2500125), wk =   0.0092593
        k(   40) = (  -0.0041673   0.4167292   0.3333500), wk =   0.0092593
        k(   41) = (  -0.0041673   0.4167292   0.4166875), wk =   0.0092593
        k(   42) = (  -0.0041673   0.4167292  -0.5000250), wk =   0.0046296
        k(   43) = (   0.0050008  -0.5000750   0.0000000), wk =   0.0023148
        k(   44) = (   0.0050008  -0.5000750   0.0833375), wk =   0.0046296
        k(   45) = (   0.0050008  -0.5000750   0.1666750), wk =   0.0046296
        k(   46) = (   0.0050008  -0.5000750   0.2500125), wk =   0.0046296
        k(   47) = (   0.0050008  -0.5000750   0.3333500), wk =   0.0046296
        k(   48) = (   0.0050008  -0.5000750   0.4166875), wk =   0.0046296
        k(   49) = (   0.0050008  -0.5000750  -0.5000250), wk =   0.0023148
        k(   50) = (   0.0825124   0.0825124   0.0000000), wk =   0.0023148
        k(   51) = (   0.0825124   0.0825124   0.0833375), wk =   0.0046296
        k(   52) = (   0.0825124   0.0825124   0.1666750), wk =   0.0046296
        k(   53) = (   0.0825124   0.0825124   0.2500125), wk =   0.0046296
        k(   54) = (   0.0825124   0.0825124   0.3333500), wk =   0.0046296
        k(   55) = (   0.0825124   0.0825124   0.4166875), wk =   0.0046296
        k(   56) = (   0.0825124   0.0825124  -0.5000250), wk =   0.0023148
        k(   57) = (   0.0816789   0.1658582   0.0000000), wk =   0.0046296
        k(   58) = (   0.0816789   0.1658582   0.0833375), wk =   0.0092593
        k(   59) = (   0.0816789   0.1658582   0.1666750), wk =   0.0092593
        k(   60) = (   0.0816789   0.1658582   0.2500125), wk =   0.0092593
        k(   61) = (   0.0816789   0.1658582   0.3333500), wk =   0.0092593
        k(   62) = (   0.0816789   0.1658582   0.4166875), wk =   0.0092593
        k(   63) = (   0.0816789   0.1658582  -0.5000250), wk =   0.0046296
        k(   64) = (   0.0808455   0.2492040   0.0000000), wk =   0.0046296
        k(   65) = (   0.0808455   0.2492040   0.0833375), wk =   0.0092593
        k(   66) = (   0.0808455   0.2492040   0.1666750), wk =   0.0092593
        k(   67) = (   0.0808455   0.2492040   0.2500125), wk =   0.0092593
        k(   68) = (   0.0808455   0.2492040   0.3333500), wk =   0.0092593
        k(   69) = (   0.0808455   0.2492040   0.4166875), wk =   0.0092593
        k(   70) = (   0.0808455   0.2492040  -0.5000250), wk =   0.0046296
        k(   71) = (   0.0800120   0.3325499   0.0000000), wk =   0.0046296
        k(   72) = (   0.0800120   0.3325499   0.0833375), wk =   0.0092593
        k(   73) = (   0.0800120   0.3325499   0.1666750), wk =   0.0092593
        k(   74) = (   0.0800120   0.3325499   0.2500125), wk =   0.0092593
        k(   75) = (   0.0800120   0.3325499   0.3333500), wk =   0.0092593
        k(   76) = (   0.0800120   0.3325499   0.4166875), wk =   0.0092593
        k(   77) = (   0.0800120   0.3325499  -0.5000250), wk =   0.0046296
        k(   78) = (   0.0791785   0.4158957   0.0000000), wk =   0.0046296
        k(   79) = (   0.0791785   0.4158957   0.0833375), wk =   0.0092593
        k(   80) = (   0.0791785   0.4158957   0.1666750), wk =   0.0092593
        k(   81) = (   0.0791785   0.4158957   0.2500125), wk =   0.0092593
        k(   82) = (   0.0791785   0.4158957   0.3333500), wk =   0.0092593
        k(   83) = (   0.0791785   0.4158957   0.4166875), wk =   0.0092593
        k(   84) = (   0.0791785   0.4158957  -0.5000250), wk =   0.0046296
        k(   85) = (   0.0883466  -0.5009085   0.0000000), wk =   0.0046296
        k(   86) = (   0.0883466  -0.5009085   0.0833375), wk =   0.0092593
        k(   87) = (   0.0883466  -0.5009085   0.1666750), wk =   0.0092593
        k(   88) = (   0.0883466  -0.5009085   0.2500125), wk =   0.0092593
        k(   89) = (   0.0883466  -0.5009085   0.3333500), wk =   0.0092593
        k(   90) = (   0.0883466  -0.5009085   0.4166875), wk =   0.0092593
        k(   91) = (   0.0883466  -0.5009085  -0.5000250), wk =   0.0046296
        k(   92) = (   0.0875131  -0.4175626   0.0000000), wk =   0.0046296
        k(   93) = (   0.0875131  -0.4175626   0.0833375), wk =   0.0092593
        k(   94) = (   0.0875131  -0.4175626   0.1666750), wk =   0.0092593
        k(   95) = (   0.0875131  -0.4175626   0.2500125), wk =   0.0092593
        k(   96) = (   0.0875131  -0.4175626   0.3333500), wk =   0.0092593
        k(   97) = (   0.0875131  -0.4175626   0.4166875), wk =   0.0092593
        k(   98) = (   0.0875131  -0.4175626  -0.5000250), wk =   0.0046296
        k(   99) = (   0.0866797  -0.3342168   0.0000000), wk =   0.0046296
        k(  100) = (   0.0866797  -0.3342168   0.0833375), wk =   0.0092593
        k(  101) = (   0.0866797  -0.3342168   0.1666750), wk =   0.0092593
        k(  102) = (   0.0866797  -0.3342168   0.2500125), wk =   0.0092593
        k(  103) = (   0.0866797  -0.3342168   0.3333500), wk =   0.0092593
        k(  104) = (   0.0866797  -0.3342168   0.4166875), wk =   0.0092593
        k(  105) = (   0.0866797  -0.3342168  -0.5000250), wk =   0.0046296
        k(  106) = (   0.0858462  -0.2508710   0.0000000), wk =   0.0046296
        k(  107) = (   0.0858462  -0.2508710   0.0833375), wk =   0.0092593
        k(  108) = (   0.0858462  -0.2508710   0.1666750), wk =   0.0092593
        k(  109) = (   0.0858462  -0.2508710   0.2500125), wk =   0.0092593
        k(  110) = (   0.0858462  -0.2508710   0.3333500), wk =   0.0092593
        k(  111) = (   0.0858462  -0.2508710   0.4166875), wk =   0.0092593
        k(  112) = (   0.0858462  -0.2508710  -0.5000250), wk =   0.0046296
        k(  113) = (   0.0850128  -0.1675251   0.0000000), wk =   0.0046296
        k(  114) = (   0.0850128  -0.1675251   0.0833375), wk =   0.0092593
        k(  115) = (   0.0850128  -0.1675251   0.1666750), wk =   0.0092593
        k(  116) = (   0.0850128  -0.1675251   0.2500125), wk =   0.0092593
        k(  117) = (   0.0850128  -0.1675251   0.3333500), wk =   0.0092593
        k(  118) = (   0.0850128  -0.1675251   0.4166875), wk =   0.0092593
        k(  119) = (   0.0850128  -0.1675251  -0.5000250), wk =   0.0046296
        k(  120) = (   0.0841793  -0.0841793   0.0000000), wk =   0.0023148
        k(  121) = (   0.0841793  -0.0841793   0.0833375), wk =   0.0046296
        k(  122) = (   0.0841793  -0.0841793   0.1666750), wk =   0.0046296
        k(  123) = (   0.0841793  -0.0841793   0.2500125), wk =   0.0046296
        k(  124) = (   0.0841793  -0.0841793   0.3333500), wk =   0.0046296
        k(  125) = (   0.0841793  -0.0841793   0.4166875), wk =   0.0046296
        k(  126) = (   0.0841793  -0.0841793  -0.5000250), wk =   0.0023148
        k(  127) = (   0.1650248   0.1650248   0.0000000), wk =   0.0023148
        k(  128) = (   0.1650248   0.1650248   0.0833375), wk =   0.0046296
        k(  129) = (   0.1650248   0.1650248   0.1666750), wk =   0.0046296
        k(  130) = (   0.1650248   0.1650248   0.2500125), wk =   0.0046296
        k(  131) = (   0.1650248   0.1650248   0.3333500), wk =   0.0046296
        k(  132) = (   0.1650248   0.1650248   0.4166875), wk =   0.0046296
        k(  133) = (   0.1650248   0.1650248  -0.5000250), wk =   0.0023148
        k(  134) = (   0.1641913   0.2483706   0.0000000), wk =   0.0046296
        k(  135) = (   0.1641913   0.2483706   0.0833375), wk =   0.0092593
        k(  136) = (   0.1641913   0.2483706   0.1666750), wk =   0.0092593
        k(  137) = (   0.1641913   0.2483706   0.2500125), wk =   0.0092593
        k(  138) = (   0.1641913   0.2483706   0.3333500), wk =   0.0092593
        k(  139) = (   0.1641913   0.2483706   0.4166875), wk =   0.0092593
        k(  140) = (   0.1641913   0.2483706  -0.5000250), wk =   0.0046296
        k(  141) = (   0.1633578   0.3317164   0.0000000), wk =   0.0046296
        k(  142) = (   0.1633578   0.3317164   0.0833375), wk =   0.0092593
        k(  143) = (   0.1633578   0.3317164   0.1666750), wk =   0.0092593
        k(  144) = (   0.1633578   0.3317164   0.2500125), wk =   0.0092593
        k(  145) = (   0.1633578   0.3317164   0.3333500), wk =   0.0092593
        k(  146) = (   0.1633578   0.3317164   0.4166875), wk =   0.0092593
        k(  147) = (   0.1633578   0.3317164  -0.5000250), wk =   0.0046296
        k(  148) = (   0.1625244   0.4150623   0.0000000), wk =   0.0046296
        k(  149) = (   0.1625244   0.4150623   0.0833375), wk =   0.0092593
        k(  150) = (   0.1625244   0.4150623   0.1666750), wk =   0.0092593
        k(  151) = (   0.1625244   0.4150623   0.2500125), wk =   0.0092593
        k(  152) = (   0.1625244   0.4150623   0.3333500), wk =   0.0092593
        k(  153) = (   0.1625244   0.4150623   0.4166875), wk =   0.0092593
        k(  154) = (   0.1625244   0.4150623  -0.5000250), wk =   0.0046296
        k(  155) = (   0.1716924  -0.5017419   0.0000000), wk =   0.0046296
        k(  156) = (   0.1716924  -0.5017419   0.0833375), wk =   0.0092593
        k(  157) = (   0.1716924  -0.5017419   0.1666750), wk =   0.0092593
        k(  158) = (   0.1716924  -0.5017419   0.2500125), wk =   0.0092593
        k(  159) = (   0.1716924  -0.5017419   0.3333500), wk =   0.0092593
        k(  160) = (   0.1716924  -0.5017419   0.4166875), wk =   0.0092593
        k(  161) = (   0.1716924  -0.5017419  -0.5000250), wk =   0.0046296
        k(  162) = (   0.1708590  -0.4183961   0.0000000), wk =   0.0046296
        k(  163) = (   0.1708590  -0.4183961   0.0833375), wk =   0.0092593
        k(  164) = (   0.1708590  -0.4183961   0.1666750), wk =   0.0092593
        k(  165) = (   0.1708590  -0.4183961   0.2500125), wk =   0.0092593
        k(  166) = (   0.1708590  -0.4183961   0.3333500), wk =   0.0092593
        k(  167) = (   0.1708590  -0.4183961   0.4166875), wk =   0.0092593
        k(  168) = (   0.1708590  -0.4183961  -0.5000250), wk =   0.0046296
        k(  169) = (   0.1700255  -0.3350503   0.0000000), wk =   0.0046296
        k(  170) = (   0.1700255  -0.3350503   0.0833375), wk =   0.0092593
        k(  171) = (   0.1700255  -0.3350503   0.1666750), wk =   0.0092593
        k(  172) = (   0.1700255  -0.3350503   0.2500125), wk =   0.0092593
        k(  173) = (   0.1700255  -0.3350503   0.3333500), wk =   0.0092593
        k(  174) = (   0.1700255  -0.3350503   0.4166875), wk =   0.0092593
        k(  175) = (   0.1700255  -0.3350503  -0.5000250), wk =   0.0046296
        k(  176) = (   0.1691920  -0.2517044   0.0000000), wk =   0.0046296
        k(  177) = (   0.1691920  -0.2517044   0.0833375), wk =   0.0092593
        k(  178) = (   0.1691920  -0.2517044   0.1666750), wk =   0.0092593
        k(  179) = (   0.1691920  -0.2517044   0.2500125), wk =   0.0092593
        k(  180) = (   0.1691920  -0.2517044   0.3333500), wk =   0.0092593
        k(  181) = (   0.1691920  -0.2517044   0.4166875), wk =   0.0092593
        k(  182) = (   0.1691920  -0.2517044  -0.5000250), wk =   0.0046296
        k(  183) = (   0.1683586  -0.1683586   0.0000000), wk =   0.0023148
        k(  184) = (   0.1683586  -0.1683586   0.0833375), wk =   0.0046296
        k(  185) = (   0.1683586  -0.1683586   0.1666750), wk =   0.0046296
        k(  186) = (   0.1683586  -0.1683586   0.2500125), wk =   0.0046296
        k(  187) = (   0.1683586  -0.1683586   0.3333500), wk =   0.0046296
        k(  188) = (   0.1683586  -0.1683586   0.4166875), wk =   0.0046296
        k(  189) = (   0.1683586  -0.1683586  -0.5000250), wk =   0.0023148
        k(  190) = (   0.2475371   0.2475371   0.0000000), wk =   0.0023148
        k(  191) = (   0.2475371   0.2475371   0.0833375), wk =   0.0046296
        k(  192) = (   0.2475371   0.2475371   0.1666750), wk =   0.0046296
        k(  193) = (   0.2475371   0.2475371   0.2500125), wk =   0.0046296
        k(  194) = (   0.2475371   0.2475371   0.3333500), wk =   0.0046296
        k(  195) = (   0.2475371   0.2475371   0.4166875), wk =   0.0046296
        k(  196) = (   0.2475371   0.2475371  -0.5000250), wk =   0.0023148
        k(  197) = (   0.2467037   0.3308830   0.0000000), wk =   0.0046296
        k(  198) = (   0.2467037   0.3308830   0.0833375), wk =   0.0092593
        k(  199) = (   0.2467037   0.3308830   0.1666750), wk =   0.0092593
        k(  200) = (   0.2467037   0.3308830   0.2500125), wk =   0.0092593
        k(  201) = (   0.2467037   0.3308830   0.3333500), wk =   0.0092593
        k(  202) = (   0.2467037   0.3308830   0.4166875), wk =   0.0092593
        k(  203) = (   0.2467037   0.3308830  -0.5000250), wk =   0.0046296
        k(  204) = (   0.2458702   0.4142288   0.0000000), wk =   0.0046296
        k(  205) = (   0.2458702   0.4142288   0.0833375), wk =   0.0092593
        k(  206) = (   0.2458702   0.4142288   0.1666750), wk =   0.0092593
        k(  207) = (   0.2458702   0.4142288   0.2500125), wk =   0.0092593
        k(  208) = (   0.2458702   0.4142288   0.3333500), wk =   0.0092593
        k(  209) = (   0.2458702   0.4142288   0.4166875), wk =   0.0092593
        k(  210) = (   0.2458702   0.4142288  -0.5000250), wk =   0.0046296
        k(  211) = (   0.2550383  -0.5025754   0.0000000), wk =   0.0046296
        k(  212) = (   0.2550383  -0.5025754   0.0833375), wk =   0.0092593
        k(  213) = (   0.2550383  -0.5025754   0.1666750), wk =   0.0092593
        k(  214) = (   0.2550383  -0.5025754   0.2500125), wk =   0.0092593
        k(  215) = (   0.2550383  -0.5025754   0.3333500), wk =   0.0092593
        k(  216) = (   0.2550383  -0.5025754   0.4166875), wk =   0.0092593
        k(  217) = (   0.2550383  -0.5025754  -0.5000250), wk =   0.0046296
        k(  218) = (   0.2542048  -0.4192295   0.0000000), wk =   0.0046296
        k(  219) = (   0.2542048  -0.4192295   0.0833375), wk =   0.0092593
        k(  220) = (   0.2542048  -0.4192295   0.1666750), wk =   0.0092593
        k(  221) = (   0.2542048  -0.4192295   0.2500125), wk =   0.0092593
        k(  222) = (   0.2542048  -0.4192295   0.3333500), wk =   0.0092593
        k(  223) = (   0.2542048  -0.4192295   0.4166875), wk =   0.0092593
        k(  224) = (   0.2542048  -0.4192295  -0.5000250), wk =   0.0046296
        k(  225) = (   0.2533713  -0.3358837   0.0000000), wk =   0.0046296
        k(  226) = (   0.2533713  -0.3358837   0.0833375), wk =   0.0092593
        k(  227) = (   0.2533713  -0.3358837   0.1666750), wk =   0.0092593
        k(  228) = (   0.2533713  -0.3358837   0.2500125), wk =   0.0092593
        k(  229) = (   0.2533713  -0.3358837   0.3333500), wk =   0.0092593
        k(  230) = (   0.2533713  -0.3358837   0.4166875), wk =   0.0092593
        k(  231) = (   0.2533713  -0.3358837  -0.5000250), wk =   0.0046296
        k(  232) = (   0.2525379  -0.2525379   0.0000000), wk =   0.0023148
        k(  233) = (   0.2525379  -0.2525379   0.0833375), wk =   0.0046296
        k(  234) = (   0.2525379  -0.2525379   0.1666750), wk =   0.0046296
        k(  235) = (   0.2525379  -0.2525379   0.2500125), wk =   0.0046296
        k(  236) = (   0.2525379  -0.2525379   0.3333500), wk =   0.0046296
        k(  237) = (   0.2525379  -0.2525379   0.4166875), wk =   0.0046296
        k(  238) = (   0.2525379  -0.2525379  -0.5000250), wk =   0.0023148
        k(  239) = (   0.3300495   0.3300495   0.0000000), wk =   0.0023148
        k(  240) = (   0.3300495   0.3300495   0.0833375), wk =   0.0046296
        k(  241) = (   0.3300495   0.3300495   0.1666750), wk =   0.0046296
        k(  242) = (   0.3300495   0.3300495   0.2500125), wk =   0.0046296
        k(  243) = (   0.3300495   0.3300495   0.3333500), wk =   0.0046296
        k(  244) = (   0.3300495   0.3300495   0.4166875), wk =   0.0046296
        k(  245) = (   0.3300495   0.3300495  -0.5000250), wk =   0.0023148
        k(  246) = (   0.3292160   0.4133953   0.0000000), wk =   0.0046296
        k(  247) = (   0.3292160   0.4133953   0.0833375), wk =   0.0092593
        k(  248) = (   0.3292160   0.4133953   0.1666750), wk =   0.0092593
        k(  249) = (   0.3292160   0.4133953   0.2500125), wk =   0.0092593
        k(  250) = (   0.3292160   0.4133953   0.3333500), wk =   0.0092593
        k(  251) = (   0.3292160   0.4133953   0.4166875), wk =   0.0092593
        k(  252) = (   0.3292160   0.4133953  -0.5000250), wk =   0.0046296
        k(  253) = (   0.3383841  -0.5034088   0.0000000), wk =   0.0046296
        k(  254) = (   0.3383841  -0.5034088   0.0833375), wk =   0.0092593
        k(  255) = (   0.3383841  -0.5034088   0.1666750), wk =   0.0092593
        k(  256) = (   0.3383841  -0.5034088   0.2500125), wk =   0.0092593
        k(  257) = (   0.3383841  -0.5034088   0.3333500), wk =   0.0092593
        k(  258) = (   0.3383841  -0.5034088   0.4166875), wk =   0.0092593
        k(  259) = (   0.3383841  -0.5034088  -0.5000250), wk =   0.0046296
        k(  260) = (   0.3375506  -0.4200630   0.0000000), wk =   0.0046296
        k(  261) = (   0.3375506  -0.4200630   0.0833375), wk =   0.0092593
        k(  262) = (   0.3375506  -0.4200630   0.1666750), wk =   0.0092593
        k(  263) = (   0.3375506  -0.4200630   0.2500125), wk =   0.0092593
        k(  264) = (   0.3375506  -0.4200630   0.3333500), wk =   0.0092593
        k(  265) = (   0.3375506  -0.4200630   0.4166875), wk =   0.0092593
        k(  266) = (   0.3375506  -0.4200630  -0.5000250), wk =   0.0046296
        k(  267) = (   0.3367172  -0.3367172   0.0000000), wk =   0.0023148
        k(  268) = (   0.3367172  -0.3367172   0.0833375), wk =   0.0046296
        k(  269) = (   0.3367172  -0.3367172   0.1666750), wk =   0.0046296
        k(  270) = (   0.3367172  -0.3367172   0.2500125), wk =   0.0046296
        k(  271) = (   0.3367172  -0.3367172   0.3333500), wk =   0.0046296
        k(  272) = (   0.3367172  -0.3367172   0.4166875), wk =   0.0046296
        k(  273) = (   0.3367172  -0.3367172  -0.5000250), wk =   0.0023148
        k(  274) = (   0.4125619   0.4125619   0.0000000), wk =   0.0023148
        k(  275) = (   0.4125619   0.4125619   0.0833375), wk =   0.0046296
        k(  276) = (   0.4125619   0.4125619   0.1666750), wk =   0.0046296
        k(  277) = (   0.4125619   0.4125619   0.2500125), wk =   0.0046296
        k(  278) = (   0.4125619   0.4125619   0.3333500), wk =   0.0046296
        k(  279) = (   0.4125619   0.4125619   0.4166875), wk =   0.0046296
        k(  280) = (   0.4125619   0.4125619  -0.5000250), wk =   0.0023148
        k(  281) = (   0.4217299  -0.5042423   0.0000000), wk =   0.0046296
        k(  282) = (   0.4217299  -0.5042423   0.0833375), wk =   0.0092593
        k(  283) = (   0.4217299  -0.5042423   0.1666750), wk =   0.0092593
        k(  284) = (   0.4217299  -0.5042423   0.2500125), wk =   0.0092593
        k(  285) = (   0.4217299  -0.5042423   0.3333500), wk =   0.0092593
        k(  286) = (   0.4217299  -0.5042423   0.4166875), wk =   0.0092593
        k(  287) = (   0.4217299  -0.5042423  -0.5000250), wk =   0.0046296
        k(  288) = (   0.4208965  -0.4208965   0.0000000), wk =   0.0023148
        k(  289) = (   0.4208965  -0.4208965   0.0833375), wk =   0.0046296
        k(  290) = (   0.4208965  -0.4208965   0.1666750), wk =   0.0046296
        k(  291) = (   0.4208965  -0.4208965   0.2500125), wk =   0.0046296
        k(  292) = (   0.4208965  -0.4208965   0.3333500), wk =   0.0046296
        k(  293) = (   0.4208965  -0.4208965   0.4166875), wk =   0.0046296
        k(  294) = (   0.4208965  -0.4208965  -0.5000250), wk =   0.0023148
        k(  295) = (  -0.4950743  -0.4950743   0.0000000), wk =   0.0011574
        k(  296) = (  -0.4950743  -0.4950743   0.0833375), wk =   0.0023148
        k(  297) = (  -0.4950743  -0.4950743   0.1666750), wk =   0.0023148
        k(  298) = (  -0.4950743  -0.4950743   0.2500125), wk =   0.0023148
        k(  299) = (  -0.4950743  -0.4950743   0.3333500), wk =   0.0023148
        k(  300) = (  -0.4950743  -0.4950743   0.4166875), wk =   0.0023148
        k(  301) = (  -0.4950743  -0.4950743  -0.5000250), wk =   0.0011574

                       cryst. coord.
        k(    1) = (   0.0000000   0.0000000   0.0000000), wk =   0.0011574
        k(    2) = (   0.0000000   0.0000000   0.0833333), wk =   0.0023148
        k(    3) = (   0.0000000   0.0000000   0.1666667), wk =   0.0023148
        k(    4) = (   0.0000000   0.0000000   0.2500000), wk =   0.0023148
        k(    5) = (   0.0000000   0.0000000   0.3333333), wk =   0.0023148
        k(    6) = (   0.0000000   0.0000000   0.4166667), wk =   0.0023148
        k(    7) = (   0.0000000   0.0000000  -0.5000000), wk =   0.0011574
        k(    8) = (  -0.0000000   0.0833333   0.0000000), wk =   0.0046296
        k(    9) = (  -0.0000000   0.0833333   0.0833333), wk =   0.0092593
        k(   10) = (  -0.0000000   0.0833333   0.1666667), wk =   0.0092593
        k(   11) = (  -0.0000000   0.0833333   0.2500000), wk =   0.0092593
        k(   12) = (  -0.0000000   0.0833333   0.3333333), wk =   0.0092593
        k(   13) = (  -0.0000000   0.0833333   0.4166667), wk =   0.0092593
        k(   14) = (  -0.0000000   0.0833333  -0.5000000), wk =   0.0046296
        k(   15) = (  -0.0000000   0.1666667   0.0000000), wk =   0.0046296
        k(   16) = (  -0.0000000   0.1666667   0.0833333), wk =   0.0092593
        k(   17) = (  -0.0000000   0.1666667   0.1666667), wk =   0.0092593
        k(   18) = (  -0.0000000   0.1666667   0.2500000), wk =   0.0092593
        k(   19) = (  -0.0000000   0.1666667   0.3333333), wk =   0.0092593
        k(   20) = (  -0.0000000   0.1666667   0.4166667), wk =   0.0092593
        k(   21) = (  -0.0000000   0.1666667  -0.5000000), wk =   0.0046296
        k(   22) = (   0.0000000   0.2500000   0.0000000), wk =   0.0046296
        k(   23) = (   0.0000000   0.2500000   0.0833333), wk =   0.0092593
        k(   24) = (   0.0000000   0.2500000   0.1666667), wk =   0.0092593
        k(   25) = (   0.0000000   0.2500000   0.2500000), wk =   0.0092593
        k(   26) = (   0.0000000   0.2500000   0.3333333), wk =   0.0092593
        k(   27) = (   0.0000000   0.2500000   0.4166667), wk =   0.0092593
        k(   28) = (   0.0000000   0.2500000  -0.5000000), wk =   0.0046296
        k(   29) = (  -0.0000000   0.3333333   0.0000000), wk =   0.0046296
        k(   30) = (  -0.0000000   0.3333333   0.0833333), wk =   0.0092593
        k(   31) = (  -0.0000000   0.3333333   0.1666667), wk =   0.0092593
        k(   32) = (  -0.0000000   0.3333333   0.2500000), wk =   0.0092593
        k(   33) = (  -0.0000000   0.3333333   0.3333333), wk =   0.0092593
        k(   34) = (  -0.0000000   0.3333333   0.4166667), wk =   0.0092593
        k(   35) = (  -0.0000000   0.3333333  -0.5000000), wk =   0.0046296
        k(   36) = (   0.0000000   0.4166667   0.0000000), wk =   0.0046296
        k(   37) = (   0.0000000   0.4166667   0.0833333), wk =   0.0092593
        k(   38) = (   0.0000000   0.4166667   0.1666667), wk =   0.0092593
        k(   39) = (   0.0000000   0.4166667   0.2500000), wk =   0.0092593
        k(   40) = (   0.0000000   0.4166667   0.3333333), wk =   0.0092593
        k(   41) = (   0.0000000   0.4166667   0.4166667), wk =   0.0092593
        k(   42) = (   0.0000000   0.4166667  -0.5000000), wk =   0.0046296
        k(   43) = (   0.0000000  -0.5000000   0.0000000), wk =   0.0023148
        k(   44) = (   0.0000000  -0.5000000   0.0833333), wk =   0.0046296
        k(   45) = (   0.0000000  -0.5000000   0.1666667), wk =   0.0046296
        k(   46) = (   0.0000000  -0.5000000   0.2500000), wk =   0.0046296
        k(   47) = (   0.0000000  -0.5000000   0.3333333), wk =   0.0046296
        k(   48) = (   0.0000000  -0.5000000   0.4166667), wk =   0.0046296
        k(   49) = (   0.0000000  -0.5000000  -0.5000000), wk =   0.0023148
        k(   50) = (   0.0833333   0.0833333   0.0000000), wk =   0.0023148
        k(   51) = (   0.0833333   0.0833333   0.0833333), wk =   0.0046296
        k(   52) = (   0.0833333   0.0833333   0.1666667), wk =   0.0046296
        k(   53) = (   0.0833333   0.0833333   0.2500000), wk =   0.0046296
        k(   54) = (   0.0833333   0.0833333   0.3333333), wk =   0.0046296
        k(   55) = (   0.0833333   0.0833333   0.4166667), wk =   0.0046296
        k(   56) = (   0.0833333   0.0833333  -0.5000000), wk =   0.0023148
        k(   57) = (   0.0833333   0.1666667   0.0000000), wk =   0.0046296
        k(   58) = (   0.0833333   0.1666667   0.0833333), wk =   0.0092593
        k(   59) = (   0.0833333   0.1666667   0.1666667), wk =   0.0092593
        k(   60) = (   0.0833333   0.1666667   0.2500000), wk =   0.0092593
        k(   61) = (   0.0833333   0.1666667   0.3333333), wk =   0.0092593
        k(   62) = (   0.0833333   0.1666667   0.4166667), wk =   0.0092593
        k(   63) = (   0.0833333   0.1666667  -0.5000000), wk =   0.0046296
        k(   64) = (   0.0833333   0.2500000   0.0000000), wk =   0.0046296
        k(   65) = (   0.0833333   0.2500000   0.0833333), wk =   0.0092593
        k(   66) = (   0.0833333   0.2500000   0.1666667), wk =   0.0092593
        k(   67) = (   0.0833333   0.2500000   0.2500000), wk =   0.0092593
        k(   68) = (   0.0833333   0.2500000   0.3333333), wk =   0.0092593
        k(   69) = (   0.0833333   0.2500000   0.4166667), wk =   0.0092593
        k(   70) = (   0.0833333   0.2500000  -0.5000000), wk =   0.0046296
        k(   71) = (   0.0833333   0.3333333   0.0000000), wk =   0.0046296
        k(   72) = (   0.0833333   0.3333333   0.0833333), wk =   0.0092593
        k(   73) = (   0.0833333   0.3333333   0.1666667), wk =   0.0092593
        k(   74) = (   0.0833333   0.3333333   0.2500000), wk =   0.0092593
        k(   75) = (   0.0833333   0.3333333   0.3333333), wk =   0.0092593
        k(   76) = (   0.0833333   0.3333333   0.4166667), wk =   0.0092593
        k(   77) = (   0.0833333   0.3333333  -0.5000000), wk =   0.0046296
        k(   78) = (   0.0833333   0.4166667   0.0000000), wk =   0.0046296
        k(   79) = (   0.0833333   0.4166667   0.0833333), wk =   0.0092593
        k(   80) = (   0.0833333   0.4166667   0.1666667), wk =   0.0092593
        k(   81) = (   0.0833333   0.4166667   0.2500000), wk =   0.0092593
        k(   82) = (   0.0833333   0.4166667   0.3333333), wk =   0.0092593
        k(   83) = (   0.0833333   0.4166667   0.4166667), wk =   0.0092593
        k(   84) = (   0.0833333   0.4166667  -0.5000000), wk =   0.0046296
        k(   85) = (   0.0833333  -0.5000000   0.0000000), wk =   0.0046296
        k(   86) = (   0.0833333  -0.5000000   0.0833333), wk =   0.0092593
        k(   87) = (   0.0833333  -0.5000000   0.1666667), wk =   0.0092593
        k(   88) = (   0.0833333  -0.5000000   0.2500000), wk =   0.0092593
        k(   89) = (   0.0833333  -0.5000000   0.3333333), wk =   0.0092593
        k(   90) = (   0.0833333  -0.5000000   0.4166667), wk =   0.0092593
        k(   91) = (   0.0833333  -0.5000000  -0.5000000), wk =   0.0046296
        k(   92) = (   0.0833333  -0.4166667   0.0000000), wk =   0.0046296
        k(   93) = (   0.0833333  -0.4166667   0.0833333), wk =   0.0092593
        k(   94) = (   0.0833333  -0.4166667   0.1666667), wk =   0.0092593
        k(   95) = (   0.0833333  -0.4166667   0.2500000), wk =   0.0092593
        k(   96) = (   0.0833333  -0.4166667   0.3333333), wk =   0.0092593
        k(   97) = (   0.0833333  -0.4166667   0.4166667), wk =   0.0092593
        k(   98) = (   0.0833333  -0.4166667  -0.5000000), wk =   0.0046296
        k(   99) = (   0.0833333  -0.3333333   0.0000000), wk =   0.0046296
        k(  100) = (   0.0833333  -0.3333333   0.0833333), wk =   0.0092593
        k(  101) = (   0.0833333  -0.3333333   0.1666667), wk =   0.0092593
        k(  102) = (   0.0833333  -0.3333333   0.2500000), wk =   0.0092593
        k(  103) = (   0.0833333  -0.3333333   0.3333333), wk =   0.0092593
        k(  104) = (   0.0833333  -0.3333333   0.4166667), wk =   0.0092593
        k(  105) = (   0.0833333  -0.3333333  -0.5000000), wk =   0.0046296
        k(  106) = (   0.0833333  -0.2500000   0.0000000), wk =   0.0046296
        k(  107) = (   0.0833333  -0.2500000   0.0833333), wk =   0.0092593
        k(  108) = (   0.0833333  -0.2500000   0.1666667), wk =   0.0092593
        k(  109) = (   0.0833333  -0.2500000   0.2500000), wk =   0.0092593
        k(  110) = (   0.0833333  -0.2500000   0.3333333), wk =   0.0092593
        k(  111) = (   0.0833333  -0.2500000   0.4166667), wk =   0.0092593
        k(  112) = (   0.0833333  -0.2500000  -0.5000000), wk =   0.0046296
        k(  113) = (   0.0833333  -0.1666667   0.0000000), wk =   0.0046296
        k(  114) = (   0.0833333  -0.1666667   0.0833333), wk =   0.0092593
        k(  115) = (   0.0833333  -0.1666667   0.1666667), wk =   0.0092593
        k(  116) = (   0.0833333  -0.1666667   0.2500000), wk =   0.0092593
        k(  117) = (   0.0833333  -0.1666667   0.3333333), wk =   0.0092593
        k(  118) = (   0.0833333  -0.1666667   0.4166667), wk =   0.0092593
        k(  119) = (   0.0833333  -0.1666667  -0.5000000), wk =   0.0046296
        k(  120) = (   0.0833333  -0.0833333   0.0000000), wk =   0.0023148
        k(  121) = (   0.0833333  -0.0833333   0.0833333), wk =   0.0046296
        k(  122) = (   0.0833333  -0.0833333   0.1666667), wk =   0.0046296
        k(  123) = (   0.0833333  -0.0833333   0.2500000), wk =   0.0046296
        k(  124) = (   0.0833333  -0.0833333   0.3333333), wk =   0.0046296
        k(  125) = (   0.0833333  -0.0833333   0.4166667), wk =   0.0046296
        k(  126) = (   0.0833333  -0.0833333  -0.5000000), wk =   0.0023148
        k(  127) = (   0.1666667   0.1666667   0.0000000), wk =   0.0023148
        k(  128) = (   0.1666667   0.1666667   0.0833333), wk =   0.0046296
        k(  129) = (   0.1666667   0.1666667   0.1666667), wk =   0.0046296
        k(  130) = (   0.1666667   0.1666667   0.2500000), wk =   0.0046296
        k(  131) = (   0.1666667   0.1666667   0.3333333), wk =   0.0046296
        k(  132) = (   0.1666667   0.1666667   0.4166667), wk =   0.0046296
        k(  133) = (   0.1666667   0.1666667  -0.5000000), wk =   0.0023148
        k(  134) = (   0.1666667   0.2500000   0.0000000), wk =   0.0046296
        k(  135) = (   0.1666667   0.2500000   0.0833333), wk =   0.0092593
        k(  136) = (   0.1666667   0.2500000   0.1666667), wk =   0.0092593
        k(  137) = (   0.1666667   0.2500000   0.2500000), wk =   0.0092593
        k(  138) = (   0.1666667   0.2500000   0.3333333), wk =   0.0092593
        k(  139) = (   0.1666667   0.2500000   0.4166667), wk =   0.0092593
        k(  140) = (   0.1666667   0.2500000  -0.5000000), wk =   0.0046296
        k(  141) = (   0.1666667   0.3333333   0.0000000), wk =   0.0046296
        k(  142) = (   0.1666667   0.3333333   0.0833333), wk =   0.0092593
        k(  143) = (   0.1666667   0.3333333   0.1666667), wk =   0.0092593
        k(  144) = (   0.1666667   0.3333333   0.2500000), wk =   0.0092593
        k(  145) = (   0.1666667   0.3333333   0.3333333), wk =   0.0092593
        k(  146) = (   0.1666667   0.3333333   0.4166667), wk =   0.0092593
        k(  147) = (   0.1666667   0.3333333  -0.5000000), wk =   0.0046296
        k(  148) = (   0.1666667   0.4166667   0.0000000), wk =   0.0046296
        k(  149) = (   0.1666667   0.4166667   0.0833333), wk =   0.0092593
        k(  150) = (   0.1666667   0.4166667   0.1666667), wk =   0.0092593
        k(  151) = (   0.1666667   0.4166667   0.2500000), wk =   0.0092593
        k(  152) = (   0.1666667   0.4166667   0.3333333), wk =   0.0092593
        k(  153) = (   0.1666667   0.4166667   0.4166667), wk =   0.0092593
        k(  154) = (   0.1666667   0.4166667  -0.5000000), wk =   0.0046296
        k(  155) = (   0.1666667  -0.5000000   0.0000000), wk =   0.0046296
        k(  156) = (   0.1666667  -0.5000000   0.0833333), wk =   0.0092593
        k(  157) = (   0.1666667  -0.5000000   0.1666667), wk =   0.0092593
        k(  158) = (   0.1666667  -0.5000000   0.2500000), wk =   0.0092593
        k(  159) = (   0.1666667  -0.5000000   0.3333333), wk =   0.0092593
        k(  160) = (   0.1666667  -0.5000000   0.4166667), wk =   0.0092593
        k(  161) = (   0.1666667  -0.5000000  -0.5000000), wk =   0.0046296
        k(  162) = (   0.1666667  -0.4166667   0.0000000), wk =   0.0046296
        k(  163) = (   0.1666667  -0.4166667   0.0833333), wk =   0.0092593
        k(  164) = (   0.1666667  -0.4166667   0.1666667), wk =   0.0092593
        k(  165) = (   0.1666667  -0.4166667   0.2500000), wk =   0.0092593
        k(  166) = (   0.1666667  -0.4166667   0.3333333), wk =   0.0092593
        k(  167) = (   0.1666667  -0.4166667   0.4166667), wk =   0.0092593
        k(  168) = (   0.1666667  -0.4166667  -0.5000000), wk =   0.0046296
        k(  169) = (   0.1666667  -0.3333333   0.0000000), wk =   0.0046296
        k(  170) = (   0.1666667  -0.3333333   0.0833333), wk =   0.0092593
        k(  171) = (   0.1666667  -0.3333333   0.1666667), wk =   0.0092593
        k(  172) = (   0.1666667  -0.3333333   0.2500000), wk =   0.0092593
        k(  173) = (   0.1666667  -0.3333333   0.3333333), wk =   0.0092593
        k(  174) = (   0.1666667  -0.3333333   0.4166667), wk =   0.0092593
        k(  175) = (   0.1666667  -0.3333333  -0.5000000), wk =   0.0046296
        k(  176) = (   0.1666667  -0.2500000   0.0000000), wk =   0.0046296
        k(  177) = (   0.1666667  -0.2500000   0.0833333), wk =   0.0092593
        k(  178) = (   0.1666667  -0.2500000   0.1666667), wk =   0.0092593
        k(  179) = (   0.1666667  -0.2500000   0.2500000), wk =   0.0092593
        k(  180) = (   0.1666667  -0.2500000   0.3333333), wk =   0.0092593
        k(  181) = (   0.1666667  -0.2500000   0.4166667), wk =   0.0092593
        k(  182) = (   0.1666667  -0.2500000  -0.5000000), wk =   0.0046296
        k(  183) = (   0.1666667  -0.1666667   0.0000000), wk =   0.0023148
        k(  184) = (   0.1666667  -0.1666667   0.0833333), wk =   0.0046296
        k(  185) = (   0.1666667  -0.1666667   0.1666667), wk =   0.0046296
        k(  186) = (   0.1666667  -0.1666667   0.2500000), wk =   0.0046296
        k(  187) = (   0.1666667  -0.1666667   0.3333333), wk =   0.0046296
        k(  188) = (   0.1666667  -0.1666667   0.4166667), wk =   0.0046296
        k(  189) = (   0.1666667  -0.1666667  -0.5000000), wk =   0.0023148
        k(  190) = (   0.2500000   0.2500000   0.0000000), wk =   0.0023148
        k(  191) = (   0.2500000   0.2500000   0.0833333), wk =   0.0046296
        k(  192) = (   0.2500000   0.2500000   0.1666667), wk =   0.0046296
        k(  193) = (   0.2500000   0.2500000   0.2500000), wk =   0.0046296
        k(  194) = (   0.2500000   0.2500000   0.3333333), wk =   0.0046296
        k(  195) = (   0.2500000   0.2500000   0.4166667), wk =   0.0046296
        k(  196) = (   0.2500000   0.2500000  -0.5000000), wk =   0.0023148
        k(  197) = (   0.2500000   0.3333333   0.0000000), wk =   0.0046296
        k(  198) = (   0.2500000   0.3333333   0.0833333), wk =   0.0092593
        k(  199) = (   0.2500000   0.3333333   0.1666667), wk =   0.0092593
        k(  200) = (   0.2500000   0.3333333   0.2500000), wk =   0.0092593
        k(  201) = (   0.2500000   0.3333333   0.3333333), wk =   0.0092593
        k(  202) = (   0.2500000   0.3333333   0.4166667), wk =   0.0092593
        k(  203) = (   0.2500000   0.3333333  -0.5000000), wk =   0.0046296
        k(  204) = (   0.2500000   0.4166667   0.0000000), wk =   0.0046296
        k(  205) = (   0.2500000   0.4166667   0.0833333), wk =   0.0092593
        k(  206) = (   0.2500000   0.4166667   0.1666667), wk =   0.0092593
        k(  207) = (   0.2500000   0.4166667   0.2500000), wk =   0.0092593
        k(  208) = (   0.2500000   0.4166667   0.3333333), wk =   0.0092593
        k(  209) = (   0.2500000   0.4166667   0.4166667), wk =   0.0092593
        k(  210) = (   0.2500000   0.4166667  -0.5000000), wk =   0.0046296
        k(  211) = (   0.2500000  -0.5000000   0.0000000), wk =   0.0046296
        k(  212) = (   0.2500000  -0.5000000   0.0833333), wk =   0.0092593
        k(  213) = (   0.2500000  -0.5000000   0.1666667), wk =   0.0092593
        k(  214) = (   0.2500000  -0.5000000   0.2500000), wk =   0.0092593
        k(  215) = (   0.2500000  -0.5000000   0.3333333), wk =   0.0092593
        k(  216) = (   0.2500000  -0.5000000   0.4166667), wk =   0.0092593
        k(  217) = (   0.2500000  -0.5000000  -0.5000000), wk =   0.0046296
        k(  218) = (   0.2500000  -0.4166667   0.0000000), wk =   0.0046296
        k(  219) = (   0.2500000  -0.4166667   0.0833333), wk =   0.0092593
        k(  220) = (   0.2500000  -0.4166667   0.1666667), wk =   0.0092593
        k(  221) = (   0.2500000  -0.4166667   0.2500000), wk =   0.0092593
        k(  222) = (   0.2500000  -0.4166667   0.3333333), wk =   0.0092593
        k(  223) = (   0.2500000  -0.4166667   0.4166667), wk =   0.0092593
        k(  224) = (   0.2500000  -0.4166667  -0.5000000), wk =   0.0046296
        k(  225) = (   0.2500000  -0.3333333   0.0000000), wk =   0.0046296
        k(  226) = (   0.2500000  -0.3333333   0.0833333), wk =   0.0092593
        k(  227) = (   0.2500000  -0.3333333   0.1666667), wk =   0.0092593
        k(  228) = (   0.2500000  -0.3333333   0.2500000), wk =   0.0092593
        k(  229) = (   0.2500000  -0.3333333   0.3333333), wk =   0.0092593
        k(  230) = (   0.2500000  -0.3333333   0.4166667), wk =   0.0092593
        k(  231) = (   0.2500000  -0.3333333  -0.5000000), wk =   0.0046296
        k(  232) = (   0.2500000  -0.2500000   0.0000000), wk =   0.0023148
        k(  233) = (   0.2500000  -0.2500000   0.0833333), wk =   0.0046296
        k(  234) = (   0.2500000  -0.2500000   0.1666667), wk =   0.0046296
        k(  235) = (   0.2500000  -0.2500000   0.2500000), wk =   0.0046296
        k(  236) = (   0.2500000  -0.2500000   0.3333333), wk =   0.0046296
        k(  237) = (   0.2500000  -0.2500000   0.4166667), wk =   0.0046296
        k(  238) = (   0.2500000  -0.2500000  -0.5000000), wk =   0.0023148
        k(  239) = (   0.3333333   0.3333333   0.0000000), wk =   0.0023148
        k(  240) = (   0.3333333   0.3333333   0.0833333), wk =   0.0046296
        k(  241) = (   0.3333333   0.3333333   0.1666667), wk =   0.0046296
        k(  242) = (   0.3333333   0.3333333   0.2500000), wk =   0.0046296
        k(  243) = (   0.3333333   0.3333333   0.3333333), wk =   0.0046296
        k(  244) = (   0.3333333   0.3333333   0.4166667), wk =   0.0046296
        k(  245) = (   0.3333333   0.3333333  -0.5000000), wk =   0.0023148
        k(  246) = (   0.3333333   0.4166667   0.0000000), wk =   0.0046296
        k(  247) = (   0.3333333   0.4166667   0.0833333), wk =   0.0092593
        k(  248) = (   0.3333333   0.4166667   0.1666667), wk =   0.0092593
        k(  249) = (   0.3333333   0.4166667   0.2500000), wk =   0.0092593
        k(  250) = (   0.3333333   0.4166667   0.3333333), wk =   0.0092593
        k(  251) = (   0.3333333   0.4166667   0.4166667), wk =   0.0092593
        k(  252) = (   0.3333333   0.4166667  -0.5000000), wk =   0.0046296
        k(  253) = (   0.3333333  -0.5000000   0.0000000), wk =   0.0046296
        k(  254) = (   0.3333333  -0.5000000   0.0833333), wk =   0.0092593
        k(  255) = (   0.3333333  -0.5000000   0.1666667), wk =   0.0092593
        k(  256) = (   0.3333333  -0.5000000   0.2500000), wk =   0.0092593
        k(  257) = (   0.3333333  -0.5000000   0.3333333), wk =   0.0092593
        k(  258) = (   0.3333333  -0.5000000   0.4166667), wk =   0.0092593
        k(  259) = (   0.3333333  -0.5000000  -0.5000000), wk =   0.0046296
        k(  260) = (   0.3333333  -0.4166667   0.0000000), wk =   0.0046296
        k(  261) = (   0.3333333  -0.4166667   0.0833333), wk =   0.0092593
        k(  262) = (   0.3333333  -0.4166667   0.1666667), wk =   0.0092593
        k(  263) = (   0.3333333  -0.4166667   0.2500000), wk =   0.0092593
        k(  264) = (   0.3333333  -0.4166667   0.3333333), wk =   0.0092593
        k(  265) = (   0.3333333  -0.4166667   0.4166667), wk =   0.0092593
        k(  266) = (   0.3333333  -0.4166667  -0.5000000), wk =   0.0046296
        k(  267) = (   0.3333333  -0.3333333   0.0000000), wk =   0.0023148
        k(  268) = (   0.3333333  -0.3333333   0.0833333), wk =   0.0046296
        k(  269) = (   0.3333333  -0.3333333   0.1666667), wk =   0.0046296
        k(  270) = (   0.3333333  -0.3333333   0.2500000), wk =   0.0046296
        k(  271) = (   0.3333333  -0.3333333   0.3333333), wk =   0.0046296
        k(  272) = (   0.3333333  -0.3333333   0.4166667), wk =   0.0046296
        k(  273) = (   0.3333333  -0.3333333  -0.5000000), wk =   0.0023148
        k(  274) = (   0.4166667   0.4166667   0.0000000), wk =   0.0023148
        k(  275) = (   0.4166667   0.4166667   0.0833333), wk =   0.0046296
        k(  276) = (   0.4166667   0.4166667   0.1666667), wk =   0.0046296
        k(  277) = (   0.4166667   0.4166667   0.2500000), wk =   0.0046296
        k(  278) = (   0.4166667   0.4166667   0.3333333), wk =   0.0046296
        k(  279) = (   0.4166667   0.4166667   0.4166667), wk =   0.0046296
        k(  280) = (   0.4166667   0.4166667  -0.5000000), wk =   0.0023148
        k(  281) = (   0.4166667  -0.5000000   0.0000000), wk =   0.0046296
        k(  282) = (   0.4166667  -0.5000000   0.0833333), wk =   0.0092593
        k(  283) = (   0.4166667  -0.5000000   0.1666667), wk =   0.0092593
        k(  284) = (   0.4166667  -0.5000000   0.2500000), wk =   0.0092593
        k(  285) = (   0.4166667  -0.5000000   0.3333333), wk =   0.0092593
        k(  286) = (   0.4166667  -0.5000000   0.4166667), wk =   0.0092593
        k(  287) = (   0.4166667  -0.5000000  -0.5000000), wk =   0.0046296
        k(  288) = (   0.4166667  -0.4166667   0.0000000), wk =   0.0023148
        k(  289) = (   0.4166667  -0.4166667   0.0833333), wk =   0.0046296
        k(  290) = (   0.4166667  -0.4166667   0.1666667), wk =   0.0046296
        k(  291) = (   0.4166667  -0.4166667   0.2500000), wk =   0.0046296
        k(  292) = (   0.4166667  -0.4166667   0.3333333), wk =   0.0046296
        k(  293) = (   0.4166667  -0.4166667   0.4166667), wk =   0.0046296
        k(  294) = (   0.4166667  -0.4166667  -0.5000000), wk =   0.0023148
        k(  295) = (  -0.5000000  -0.5000000   0.0000000), wk =   0.0011574
        k(  296) = (  -0.5000000  -0.5000000   0.0833333), wk =   0.0023148
        k(  297) = (  -0.5000000  -0.5000000   0.1666667), wk =   0.0023148
        k(  298) = (  -0.5000000  -0.5000000   0.2500000), wk =   0.0023148
        k(  299) = (  -0.5000000  -0.5000000   0.3333333), wk =   0.0023148
        k(  300) = (  -0.5000000  -0.5000000   0.4166667), wk =   0.0023148
        k(  301) = (  -0.5000000  -0.5000000  -0.5000000), wk =   0.0011574

     Dense  grid:    17773 G-vectors     FFT dimensions: (  36,  36,  36)

     Smooth grid:     6295 G-vectors     FFT dimensions: (  24,  24,  24)

     Dynamical RAM for                 wfc:       0.20 MB

     Dynamical RAM for     wfc (w. buffer):      61.57 MB

     Dynamical RAM for           str. fact:       0.54 MB

     Dynamical RAM for           local pot:       0.00 MB

     Dynamical RAM for          nlocal pot:       0.31 MB

     Dynamical RAM for                qrad:       3.21 MB

     Dynamical RAM for          rho,v,vnew:       1.88 MB

     Dynamical RAM for               rhoin:       0.63 MB

     Dynamical RAM for            rho*nmix:       4.34 MB

     Dynamical RAM for           G-vectors:       1.07 MB

     Dynamical RAM for          h,s,v(r/c):       0.05 MB

     Dynamical RAM for          <psi|beta>:       0.01 MB

     Dynamical RAM for                 psi:       0.41 MB

     Dynamical RAM for                hpsi:       0.41 MB

     Dynamical RAM for                spsi:       0.41 MB

     Dynamical RAM for      wfcinit/wfcrot:       0.41 MB

     Dynamical RAM for           addusdens:      50.71 MB

     Dynamical RAM for          addusforce:      50.85 MB

     Dynamical RAM for         addusstress:      54.51 MB

     Estimated static dynamical RAM per process >      71.81 MB

     Estimated max dynamical RAM per process >     130.66 MB

     Check: negative core charge=   -0.000003

     Initial potential from superposition of free atoms

     starting charge      25.9999, renormalised to      26.0000
     Starting wfcs are   17 randomized atomic wfcs
     Checking if some PAW data can be deallocated... 

     total cpu time spent up to now is        3.6 secs

     Self-consistent Calculation

     iteration #  1     ecut=    50.00 Ry     beta= 0.40
     Davidson diagonalization with overlap

---- Real-time Memory Report at c_bands before calling an iterative solver
           112 MiB given to the printing process from OS
             0 MiB allocation reported by mallinfo(arena+hblkhd)
          4922 MiB available memory on the node where the printing process lives
------------------
     ethr =  1.00E-02,  avg # of iterations =  2.9

     total cpu time spent up to now is       14.8 secs

     WARNING: integrated charge=    26.00000998, expected=    26.00000000

     total energy              =    -503.04011254 Ry
     estimated scf accuracy    <       0.46833006 Ry

     iteration #  2     ecut=    50.00 Ry     beta= 0.40
     Davidson diagonalization with overlap

---- Real-time Memory Report at c_bands before calling an iterative solver
           174 MiB given to the printing process from OS
             0 MiB allocation reported by mallinfo(arena+hblkhd)
          4904 MiB available memory on the node where the printing process lives
------------------
     ethr =  1.80E-03,  avg # of iterations =  2.1
     Minimization algorithm failed to find Fermi energy: reverting to bisection
     Possible cause: smearing is larger than the electronic band-gap.

     total cpu time spent up to now is       26.6 secs

     WARNING: integrated charge=    26.00000706, expected=    26.00000000

     total energy              =    -503.16702475 Ry
     estimated scf accuracy    <       0.07958992 Ry

     iteration #  3     ecut=    50.00 Ry     beta= 0.40
     Davidson diagonalization with overlap

---- Real-time Memory Report at c_bands before calling an iterative solver
           175 MiB given to the printing process from OS
             0 MiB allocation reported by mallinfo(arena+hblkhd)
          4902 MiB available memory on the node where the printing process lives
------------------
     ethr =  3.06E-04,  avg # of iterations =  2.1

     total cpu time spent up to now is       37.3 secs

     WARNING: integrated charge=    26.00481091, expected=    26.00000000

     total energy              =    -503.17141294 Ry
     estimated scf accuracy    <       0.00500369 Ry

     iteration #  4     ecut=    50.00 Ry     beta= 0.40
     Davidson diagonalization with overlap

---- Real-time Memory Report at c_bands before calling an iterative solver
           175 MiB given to the printing process from OS
             0 MiB allocation reported by mallinfo(arena+hblkhd)
          4900 MiB available memory on the node where the printing process lives
------------------
     ethr =  1.92E-05,  avg # of iterations =  2.1

     total cpu time spent up to now is       47.1 secs

     WARNING: integrated charge=    26.00802041, expected=    26.00000000

     total energy              =    -503.17142687 Ry
     estimated scf accuracy    <       0.00066681 Ry

     iteration #  5     ecut=    50.00 Ry     beta= 0.40
     Davidson diagonalization with overlap

---- Real-time Memory Report at c_bands before calling an iterative solver
           175 MiB given to the printing process from OS
             0 MiB allocation reported by mallinfo(arena+hblkhd)
          4898 MiB available memory on the node where the printing process lives
------------------
     ethr =  2.56E-06,  avg # of iterations =  2.4

     total cpu time spent up to now is       58.6 secs

     WARNING: integrated charge=    26.00853378, expected=    26.00000000

     total energy              =    -503.17145062 Ry
     estimated scf accuracy    <       0.00000756 Ry

     iteration #  6     ecut=    50.00 Ry     beta= 0.40
     Davidson diagonalization with overlap

---- Real-time Memory Report at c_bands before calling an iterative solver
           175 MiB given to the printing process from OS
             0 MiB allocation reported by mallinfo(arena+hblkhd)
          4898 MiB available memory on the node where the printing process lives
------------------
     ethr =  2.91E-08,  avg # of iterations =  2.1

     total cpu time spent up to now is       70.5 secs

     WARNING: integrated charge=    26.00873095, expected=    26.00000000

     total energy              =    -503.17146230 Ry
     estimated scf accuracy    <       0.00000809 Ry

     iteration #  7     ecut=    50.00 Ry     beta= 0.40
     Davidson diagonalization with overlap

---- Real-time Memory Report at c_bands before calling an iterative solver
           176 MiB given to the printing process from OS
             0 MiB allocation reported by mallinfo(arena+hblkhd)
          4898 MiB available memory on the node where the printing process lives
------------------
     ethr =  2.91E-08,  avg # of iterations =  1.8

     total cpu time spent up to now is       80.2 secs

     WARNING: integrated charge=    26.00878354, expected=    26.00000000

     total energy              =    -503.17146026 Ry
     estimated scf accuracy    <       0.00000077 Ry

     iteration #  8     ecut=    50.00 Ry     beta= 0.40
     Davidson diagonalization with overlap

---- Real-time Memory Report at c_bands before calling an iterative solver
           176 MiB given to the printing process from OS
             0 MiB allocation reported by mallinfo(arena+hblkhd)
          4896 MiB available memory on the node where the printing process lives
------------------
     ethr =  2.97E-09,  avg # of iterations =  2.0

     total cpu time spent up to now is       92.4 secs

     WARNING: integrated charge=    26.00876688, expected=    26.00000000

     total energy              =    -503.17145920 Ry
     estimated scf accuracy    <       0.00000004 Ry

     iteration #  9     ecut=    50.00 Ry     beta= 0.40
     Davidson diagonalization with overlap

---- Real-time Memory Report at c_bands before calling an iterative solver
           176 MiB given to the printing process from OS
             0 MiB allocation reported by mallinfo(arena+hblkhd)
          4897 MiB available memory on the node where the printing process lives
------------------
     ethr =  1.36E-10,  avg # of iterations =  2.0

     total cpu time spent up to now is      103.6 secs

     End of self-consistent calculation

          k = 0.0000 0.0000 0.0000 (   763 PWs)   bands (ev):

  -112.3508 -66.5374 -66.5317 -66.5268  -6.0123   5.9416   5.9423   7.0057
     7.0063   7.0079  11.1635  11.2295  11.2989  11.5426  26.4758  26.4805
    29.5568

     occupation numbers 
     1.0000   1.0000   1.0000   1.0000   1.0000   1.0000   1.0000   1.0000
     1.0000   1.0000   1.0000   1.0000   1.0000   1.0000   0.0000   0.0000
     0.0000

          k = 0.0000 0.0000 0.0833 (   771 PWs)   bands (ev):

  -112.3508 -66.5373 -66.5330 -66.5268  -5.9436   5.9511   5.9553   6.9575
     6.9654   7.0080  10.1246  11.2506  11.3758  12.5910  25.8102  26.5810
    29.4836

     occupation numbers 
     1.0000   1.0000   1.0000   1.0000   1.0000   1.0000   1.0000   1.0000
     1.0000   1.0000   1.0000   1.0000   1.0000   1.0400   0.0000   0.0000
     0.0000

          k = 0.0000 0.0000 0.1667 (   781 PWs)   bands (ev):

  -112.3506 -66.5372 -66.5363 -66.5266  -5.7480   5.9400   5.9751   6.8319
     6.8548   7.0142   8.9664  11.4840  11.5830  13.6777  24.4360  26.8839
    29.2590

     occupation numbers 
     1.0000   1.0000   1.0000   1.0000   1.0000   1.0000   1.0000   1.0000
     1.0000   1.0000   1.0000   1.0000   1.0000   0.0000   0.0000   0.0000
     0.0000

          k = 0.0000 0.0000 0.2500 (   793 PWs)   bands (ev):

  -112.3503 -66.5408 -66.5369 -66.5264  -5.4595   5.7126   6.0081   6.6751
     6.7149   7.0224   8.1582  11.7955  11.8614  14.6901  22.8447  27.3918
    28.8980

     occupation numbers 
     1.0000   1.0000   1.0000   1.0000   1.0000   1.0000   1.0000   1.0000
     1.0000   1.0000   1.0000   1.0000   1.0000   0.0000   0.0000   0.0000
     0.0000

          k = 0.0000 0.0000 0.3333 (   790 PWs)   bands (ev):

  -112.3500 -66.5450 -66.5366 -66.5261  -5.1405   5.1809   6.0413   6.5317
     6.5856   7.0304   7.8674  12.1032  12.1378  15.6897  21.2305  28.4583
    28.4834

     occupation numbers 
     1.0000   1.0000   1.0000   1.0000   1.0000   1.0000   1.0000   1.0000
     1.0000   1.0000   1.0000   1.0000   1.0000   0.0000   0.0000   0.0000
     0.0000

          k = 0.0000 0.0000 0.4167 (   796 PWs)   bands (ev):

  -112.3498 -66.5483 -66.5365 -66.5259  -4.8821   4.6536   6.0656   6.4336
     6.4963   7.0364   7.8551  12.3284  12.3404  16.7201  19.7437  28.0633
    28.1522

     occupation numbers 
     1.0000   1.0000   1.0000   1.0000   1.0000   1.0000   1.0000   1.0000
     1.0000   1.0000   1.0000   1.0003   1.0004   0.0000   0.0000   0.0000
     0.0000

          k = 0.0000 0.0000-0.5000 (   800 PWs)   bands (ev):

  -112.3497 -66.5495 -66.5364 -66.5259  -4.7812   4.4432   6.0745   6.3989
     6.4647   7.0386   7.8753  12.4111  12.4149  17.4495  18.8467  27.9156
    28.0262

     occupation numbers 
     1.0000   1.0000   1.0000   1.0000   1.0000   1.0000   1.0000   1.0000
     1.0000   1.0000   1.0000   1.0022   1.0023   0.0000   0.0000   0.0000
     0.0000

          k =-0.0008 0.0833 0.0000 (   767 PWs)   bands (ev):

  -112.3508 -66.5379 -66.5317 -66.5273  -5.9435   5.9505   5.9559   6.9604
     6.9614   7.0093  10.1220  11.3116  11.3167  12.5916  25.8094  26.5771
    29.6118

     occupation numbers 
     1.0000   1.0000   1.0000   1.0000   1.0000   1.0000   1.0000   1.0000
     1.0000   1.0000   1.0000   1.0000   1.0000   1.0403   0.0000   0.0000
     0.0000

          k =-0.0008 0.0833 0.0833 (   774 PWs)   bands (ev):

  -112.3507 -66.5379 -66.5330 -66.5273  -5.8760   5.9602   5.9737   6.9102
     6.9424   6.9884   9.8242  11.0075  11.3957  13.2140  25.6895  26.1509
    29.5056

     occupation numbers 
     1.0000   1.0000   1.0000   1.0000   1.0000   1.0000   1.0000   1.0000
     1.0000   1.0000   1.0000   1.0000   1.0000   0.0205   0.0000   0.0000
     0.0000

          k =-0.0008 0.0833 0.1667 (   779 PWs)   bands (ev):

  -112.3505 -66.5377 -66.5362 -66.5271  -5.6839   5.9578   5.9996   6.7828
     6.8439   6.9868   8.9670  11.0439  11.5964  14.1736  24.4833  26.1775
    29.3414

     occupation numbers 
     1.0000   1.0000   1.0000   1.0000   1.0000   1.0000   1.0000   1.0000
     1.0000   1.0000   1.0000   1.0000   1.0000   0.0000   0.0000   0.0000
     0.0000

          k =-0.0008 0.0833 0.2500 (   788 PWs)   bands (ev):

  -112.3502 -66.5406 -66.5375 -66.5268  -5.4011   5.7558   6.0297   6.6464
     6.7098   6.9965   8.2094  11.3166  11.8664  15.1124  22.8704  26.4328
    29.0044

     occupation numbers 
     1.0000   1.0000   1.0000   1.0000   1.0000   1.0000   1.0000   1.0000
     1.0000   1.0000   1.0000   1.0000   1.0000   0.0000   0.0000   0.0000
     0.0000

          k =-0.0008 0.0833 0.3333 (   790 PWs)   bands (ev):

  -112.3499 -66.5449 -66.5372 -66.5266  -5.0891   5.2572   6.0652   6.5306
     6.5884   7.0069   7.8933  11.6271  12.1345  16.0463  21.2267  26.6886
    28.6024

     occupation numbers 
     1.0000   1.0000   1.0000   1.0000   1.0000   1.0000   1.0000   1.0000
     1.0000   1.0000   1.0000   1.0000   1.0000   0.0000   0.0000   0.0000
     0.0000

          k =-0.0008 0.0833 0.4167 (   796 PWs)   bands (ev):

  -112.3497 -66.5481 -66.5370 -66.5264  -4.8371   4.7568   6.0936   6.4409
     6.5035   7.0148   7.8614  11.8677  12.3313  17.0392  19.7059  26.8345
    28.2815

     occupation numbers 
     1.0000   1.0000   1.0000   1.0000   1.0000   1.0000   1.0000   1.0000
     1.0000   1.0000   1.0000   1.0000   1.0003   0.0000   0.0000   0.0000
     0.0000

          k =-0.0008 0.0833-0.5000 (   798 PWs)   bands (ev):

  -112.3497 -66.5494 -66.5369 -66.5263  -4.7388   4.5556   6.1048   6.4070
     6.4726   7.0177   7.8765  11.9586  12.4037  17.8836  18.6669  26.8691
    28.1600

     occupation numbers 
     1.0000   1.0000   1.0000   1.0000   1.0000   1.0000   1.0000   1.0000
     1.0000   1.0000   1.0000   1.0000   1.0018   0.0000   0.0000   0.0000
     0.0000

          k =-0.0017 0.1667 0.0000 (   780 PWs)   bands (ev):

  -112.3506 -66.5400 -66.5316 -66.5284  -5.7480   5.9406   5.9743   6.8431
     6.8435   7.0153   8.9655  11.5320  11.5351  13.6777  24.4318  26.8782
    29.3548

     occupation numbers 
     1.0000   1.0000   1.0000   1.0000   1.0000   1.0000   1.0000   1.0000
     1.0000   1.0000   1.0000   1.0000   1.0000   0.0000   0.0000   0.0000
     0.0000

          k =-0.0017 0.1667 0.0833 (   782 PWs)   bands (ev):

  -112.3505 -66.5400 -66.5328 -66.5283  -5.6839   5.9583   5.9989   6.7853
     6.8412   6.9876   8.9665  11.0466  11.5936  14.1735  24.4793  26.1772
    29.3415

     occupation numbers 
     1.0000   1.0000   1.0000   1.0000   1.0000   1.0000   1.0000   1.0000
     1.0000   1.0000   1.0000   1.0000   1.0000   0.0000   0.0000   0.0000
     0.0000

          k =-0.0017 0.1667 0.1667 (   786 PWs)   bands (ev):

  -112.3503 -66.5397 -66.5360 -66.5281  -5.5023   5.9552   6.0739   6.6524
     6.8115   6.9393   8.7986  10.4333  11.7497  15.0330  24.5742  24.6841
    29.2973

     occupation numbers 
     1.0000   1.0000   1.0000   1.0000   1.0000   1.0000   1.0000   1.0000
     1.0000   1.0000   1.0000   1.0000   1.0000   0.0000   0.0000   0.0000
     0.0000

          k =-0.0017 0.1667 0.2500 (   787 PWs)   bands (ev):

  -112.3500 -66.5403 -66.5394 -66.5278  -5.2360   5.8251   6.1166   6.5584
     6.7198   6.9318   8.3160  10.3682  11.9601  15.8690  22.9010  24.7967
    29.1746

     occupation numbers 
     1.0000   1.0000   1.0000   1.0000   1.0000   1.0000   1.0000   1.0000
     1.0000   1.0000   1.0000   1.0000   1.0000   0.0000   0.0000   0.0000
     0.0000

          k =-0.0017 0.1667 0.3333 (   785 PWs)   bands (ev):

  -112.3497 -66.5446 -66.5391 -66.5275  -4.9444   5.4524   6.1455   6.5147
     6.6155   6.9444   7.9641  10.5989  12.1689  16.6554  21.2248  24.9883
    28.9794

     occupation numbers 
     1.0000   1.0000   1.0000   1.0000   1.0000   1.0000   1.0000   1.0000
     1.0000   1.0000   1.0000   1.0000   1.0000   0.0000   0.0000   0.0000
     0.0000

          k =-0.0017 0.1667 0.4167 (   789 PWs)   bands (ev):

  -112.3495 -66.5478 -66.5389 -66.5273  -4.7107   5.0473   6.1771   6.4513
     6.5399   6.9565   7.8780  10.8407  12.3216  17.4541  19.7717  25.1386
    28.7937

     occupation numbers 
     1.0000   1.0000   1.0000   1.0000   1.0000   1.0000   1.0000   1.0000
     1.0000   1.0000   1.0000   1.0000   1.0003   0.0000   0.0000   0.0000
     0.0000

          k =-0.0017 0.1667-0.5000 (   792 PWs)   bands (ev):

  -112.3495 -66.5491 -66.5388 -66.5272  -4.6200   4.8782   6.1925   6.4185
     6.5121   6.9613   7.8777  10.9410  12.3776  18.1190  18.8642  25.1964
    28.7175

     occupation numbers 
     1.0000   1.0000   1.0000   1.0000   1.0000   1.0000   1.0000   1.0000
     1.0000   1.0000   1.0000   1.0000   1.0010   0.0000   0.0000   0.0000
     0.0000

          k =-0.0025 0.2500 0.0000 (   788 PWs)   bands (ev):

  -112.3503 -66.5434 -66.5314 -66.5292  -5.4594   5.7131   6.0069   6.6951
     6.6958   7.0236   8.1578  11.8273  11.8284  14.6900  22.8400  27.3799
    28.9343

     occupation numbers 
     1.0000   1.0000   1.0000   1.0000   1.0000   1.0000   1.0000   1.0000
     1.0000   1.0000   1.0000   1.0000   1.0000   0.0000   0.0000   0.0000
     0.0000

          k =-0.0025 0.2500 0.0833 (   784 PWs)   bands (ev):

  -112.3502 -66.5433 -66.5325 -66.5291  -5.4010   5.7563   6.0285   6.6528
     6.7041   6.9974   8.2092  11.3180  11.8638  15.1123  22.8658  26.4316
    28.9787

     occupation numbers 
     1.0000   1.0000   1.0000   1.0000   1.0000   1.0000   1.0000   1.0000
     1.0000   1.0000   1.0000   1.0000   1.0000   0.0000   0.0000   0.0000
     0.0000

          k =-0.0025 0.2500 0.1667 (   788 PWs)   bands (ev):

  -112.3500 -66.5430 -66.5357 -66.5288  -5.2360   5.8254   6.1159   6.5597
     6.7189   6.9321   8.3162  10.3681  11.9593  15.8689  22.8969  24.7989
    29.1599

     occupation numbers 
     1.0000   1.0000   1.0000   1.0000   1.0000   1.0000   1.0000   1.0000
     1.0000   1.0000   1.0000   1.0000   1.0000   0.0000   0.0000   0.0000
     0.0000

          k =-0.0025 0.2500 0.2500 (   786 PWs)   bands (ev):

  -112.3497 -66.5427 -66.5399 -66.5286  -4.9959   5.8049   6.2537   6.4904
     6.7141   6.8722   8.3063   9.6579  12.0877  16.5313  22.4608  23.6711
    29.3748

     occupation numbers 
     1.0000   1.0000   1.0000   1.0000   1.0000   1.0000   1.0000   1.0000
     1.0000   1.0000   1.0000   1.0000   1.0000   0.0000   0.0000   0.0000
     0.0000

          k =-0.0025 0.2500 0.3333 (   785 PWs)   bands (ev):

  -112.3494 -66.5442 -66.5423 -66.5283  -4.7355   5.6591   6.3111   6.4983
     6.6608   6.8646   8.0551   9.5507  12.2146  16.9786  21.2422  23.6449
    29.5335

     occupation numbers 
     1.0000   1.0000   1.0000   1.0000   1.0000   1.0000   1.0000   1.0000
     1.0000   1.0000   1.0000   1.0000   1.0000   0.0000   0.0000   0.0000
     0.0000

          k =-0.0025 0.2500 0.4167 (   788 PWs)   bands (ev):

  -112.3492 -66.5475 -66.5421 -66.5280  -4.5294   5.4548   6.3268   6.4725
     6.6041   6.8786   7.8972   9.7112  12.3069  17.1904  20.3249  23.8003
    29.6026

     occupation numbers 
     1.0000   1.0000   1.0000   1.0000   1.0000   1.0000   1.0000   1.0000
     1.0000   1.0000   1.0000   1.0000   1.0002   0.0000   0.0000   0.0000
     0.0000

          k =-0.0025 0.2500-0.5000 (   790 PWs)   bands (ev):

  -112.3492 -66.5487 -66.5420 -66.5280  -4.4502   5.3561   6.3364   6.4431
     6.5819   6.8855   7.8706   9.8006  12.3406  17.2359  20.0076  23.8750
    29.6212

     occupation numbers 
     1.0000   1.0000   1.0000   1.0000   1.0000   1.0000   1.0000   1.0000
     1.0000   1.0000   1.0000   1.0000   1.0004   0.0000   0.0000   0.0000
     0.0000

          k =-0.0033 0.3334 0.0000 (   793 PWs)   bands (ev):

  -112.3500 -66.5471 -66.5311 -66.5296  -5.1404   5.1814   6.0393   6.5587
     6.5603   7.0319   7.8669  12.1189  12.1197  15.6892  21.2269  28.0353
    28.4679

     occupation numbers 
     1.0000   1.0000   1.0000   1.0000   1.0000   1.0000   1.0000   1.0000
     1.0000   1.0000   1.0000   1.0000   1.0000   0.0000   0.0000   0.0000
     0.0000

          k =-0.0033 0.3334 0.0833 (   790 PWs)   bands (ev):

  -112.3499 -66.5470 -66.5322 -66.5294  -5.0890   5.2577   6.0634   6.5440
     6.5766   7.0082   7.8931  11.6272  12.1321  16.0458  21.2230  26.6863
    28.5692

     occupation numbers 
     1.0000   1.0000   1.0000   1.0000   1.0000   1.0000   1.0000   1.0000
     1.0000   1.0000   1.0000   1.0000   1.0000   0.0000   0.0000   0.0000
     0.0000

          k =-0.0033 0.3334 0.1667 (   787 PWs)   bands (ev):

  -112.3497 -66.5467 -66.5353 -66.5292  -4.9443   5.4528   6.1441   6.5174
     6.6142   6.9449   7.9644  10.5985  12.1674  16.6553  21.2208  24.9895
    28.9525

     occupation numbers 
     1.0000   1.0000   1.0000   1.0000   1.0000   1.0000   1.0000   1.0000
     1.0000   1.0000   1.0000   1.0000   1.0000   0.0000   0.0000   0.0000
     0.0000

          k =-0.0033 0.3334 0.2500 (   784 PWs)   bands (ev):

  -112.3494 -66.5463 -66.5396 -66.5289  -4.7355   5.6594   6.3103   6.4983
     6.6620   6.8644   8.0556   9.5502  12.2139  16.9788  21.2382  23.6474
    29.5115

     occupation numbers 
     1.0000   1.0000   1.0000   1.0000   1.0000   1.0000   1.0000   1.0000
     1.0000   1.0000   1.0000   1.0000   1.0000   0.0000   0.0000   0.0000
     0.0000

          k =-0.0033 0.3334 0.3333 (   785 PWs)   bands (ev):

  -112.3492 -66.5460 -66.5439 -66.5286  -4.5118   5.7775   6.4952   6.5267
     6.6911   6.8052   8.0673   8.8444  12.2587  16.8174  21.2356  22.9982
    29.9578

     occupation numbers 
     1.0000   1.0000   1.0000   1.0000   1.0000   1.0000   1.0000   1.0000
     1.0000   1.0000   1.0000   1.0000   1.0000   0.0000   0.0000   0.0000
     0.0000

          k =-0.0033 0.3334 0.4167 (   787 PWs)   bands (ev):

  -112.3489 -66.5471 -66.5458 -66.5283  -4.3369   5.8299   6.5088   6.6034
     6.6724   6.8037   7.9009   8.7266  12.2904  16.4082  21.1668  22.9530
    29.4565

     occupation numbers 
     1.0000   1.0000   1.0000   1.0000   1.0000   1.0000   1.0000   1.0000
     1.0000   1.0000   1.0000   1.0000   1.0001   0.0000   0.0000   0.0000
     0.0000

          k =-0.0033 0.3334-0.5000 (   790 PWs)   bands (ev):

  -112.3489 -66.5482 -66.5457 -66.5282  -4.2702   5.8486   6.5178   6.5751
     6.6574   6.8119   7.8363   8.7669  12.3018  16.2015  21.1272  23.0221
    29.1952

     occupation numbers 
     1.0000   1.0000   1.0000   1.0000   1.0000   1.0000   1.0000   1.0000
     1.0000   1.0000   1.0000   1.0000   1.0002   0.0000   0.0000   0.0000
     0.0000

          k =-0.0042 0.4167 0.0000 (   796 PWs)   bands (ev):

  -112.3498 -66.5500 -66.5309 -66.5296  -4.8820   4.6542   6.0628   6.4651
     6.4675   7.0380   7.8547  12.3318  12.3339  16.7181  19.7426  28.0557
    28.1037

     occupation numbers 
     1.0000   1.0000   1.0000   1.0000   1.0000   1.0000   1.0000   1.0000
     1.0000   1.0000   1.0000   1.0003   1.0004   0.0000   0.0000   0.0000
     0.0000

          k =-0.0042 0.4167 0.0833 (   793 PWs)   bands (ev):

  -112.3497 -66.5499 -66.5320 -66.5295  -4.8369   4.7574   6.0909   6.4602
     6.4867   7.0162   7.8612  11.8674  12.3287  17.0376  19.7042  26.8322
    28.2448

     occupation numbers 
     1.0000   1.0000   1.0000   1.0000   1.0000   1.0000   1.0000   1.0000
     1.0000   1.0000   1.0000   1.0000   1.0003   0.0000   0.0000   0.0000
     0.0000

          k =-0.0042 0.4167 0.1667 (   789 PWs)   bands (ev):

  -112.3495 -66.5497 -66.5351 -66.5292  -4.7106   5.0479   6.1748   6.4568
     6.5367   6.9574   7.8781  10.8402  12.3196  17.4540  19.7674  25.1392
    28.7578

     occupation numbers 
     1.0000   1.0000   1.0000   1.0000   1.0000   1.0000   1.0000   1.0000
     1.0000   1.0000   1.0000   1.0000   1.0002   0.0000   0.0000   0.0000
     0.0000

          k =-0.0042 0.4167 0.2500 (   787 PWs)   bands (ev):

  -112.3492 -66.5493 -66.5393 -66.5289  -4.5294   5.4551   6.3251   6.4731
     6.6057   6.8786   7.8976   9.7107  12.3056  17.1912  20.3183  23.8037
    29.5334

     occupation numbers 
     1.0000   1.0000   1.0000   1.0000   1.0000   1.0000   1.0000   1.0000
     1.0000   1.0000   1.0000   1.0000   1.0002   0.0000   0.0000   0.0000
     0.0000

          k =-0.0042 0.4167 0.3333 (   791 PWs)   bands (ev):

  -112.3490 -66.5489 -66.5437 -66.5287  -4.3369   5.8299   6.5079   6.6032
     6.6750   6.8026   7.9014   8.7260  12.2899  16.4086  21.1604  22.9580
    29.4451

     occupation numbers 
     1.0000   1.0000   1.0000   1.0000   1.0000   1.0000   1.0000   1.0000
     1.0000   1.0000   1.0000   1.0000   1.0001   0.0000   0.0000   0.0000
     0.0000

          k =-0.0042 0.4167 0.4167 (   790 PWs)   bands (ev):

  -112.3487 -66.5486 -66.5468 -66.5284  -4.1878   6.0553   6.5956   6.7172
     6.7568   6.9014   7.8324   8.1044  12.2772  15.6532  21.8542  22.5705
    28.7354

     occupation numbers 
     1.0000   1.0000   1.0000   1.0000   1.0000   1.0000   1.0000   1.0000
     1.0000   1.0000   1.0000   1.0000   1.0001   0.0000   0.0000   0.0000
     0.0000

          k =-0.0042 0.4167-0.5000 (   784 PWs)   bands (ev):

  -112.3487 -66.5485 -66.5479 -66.5283  -4.1313   6.1345   6.6652   6.7190
     6.7565   6.9748   7.7406   7.9738  12.2724  15.3434  22.0418  22.5620
    28.4034

     occupation numbers 
     1.0000   1.0000   1.0000   1.0000   1.0000   1.0000   1.0000   1.0000
     1.0000   1.0000   1.0000   1.0000   1.0001   0.0000   0.0000   0.0000
     0.0000

          k = 0.0050-0.5001 0.0000 (   804 PWs)   bands (ev):

  -112.3498 -66.5512 -66.5309 -66.5297  -4.7810   4.4438   6.0713   6.4319
     6.4348   7.0402   7.8750  12.4101  12.4126  17.4442  18.8493  27.9316
    27.9665

     occupation numbers 
     1.0000   1.0000   1.0000   1.0000   1.0000   1.0000   1.0000   1.0000
     1.0000   1.0000   1.0000   1.0021   1.0022   0.0000   0.0000   0.0000
     0.0000

          k = 0.0050-0.5001 0.0833 (   794 PWs)   bands (ev):

  -112.3497 -66.5511 -66.5319 -66.5295  -4.7386   4.5563   6.1016   6.4284
[...]

     occupation numbers 
     1.0000   1.0000   1.0000   1.0000   1.0000   1.0000   1.0000   1.0000
     1.0000   1.0000   1.0000   1.0000   1.0000   0.0000   0.0000   0.0000
     0.0000

          k = 0.4126 0.4126 0.1667 (   781 PWs)   bands (ev):

  -112.3484 -66.5523 -66.5409 -66.5339  -4.0097   5.9446   6.1258   6.4743
     6.6576   7.1156   8.3462   8.9240  11.8036  15.9657  20.9818  21.7253
    28.9005

     occupation numbers 
     1.0000   1.0000   1.0000   1.0000   1.0000   1.0000   1.0000   1.0000
     1.0000   1.0000   1.0000   1.0000   1.0000   0.0000   0.0000   0.0000
     0.0000

          k = 0.4126 0.4126 0.2500 (   782 PWs)   bands (ev):

  -112.3482 -66.5519 -66.5406 -66.5381  -3.8137   5.7247   5.8088   6.3435
     6.7155   7.1443   8.9050   9.6180  11.4233  16.3834  20.1001  20.7026
    26.9909

     occupation numbers 
     1.0000   1.0000   1.0000   1.0000   1.0000   1.0000   1.0000   1.0000
     1.0000   1.0000   1.0000   1.0000   1.0000   0.0000   0.0000   0.0000
     0.0000

          k = 0.4126 0.4126 0.3333 (   784 PWs)   bands (ev):

  -112.3479 -66.5516 -66.5423 -66.5402  -3.6029   5.5438   5.5713   5.9694
     6.9743   7.1597   9.5298  10.3217  11.0966  16.8990  19.1564  19.6402
    25.1404

     occupation numbers 
     1.0000   1.0000   1.0000   1.0000   1.0000   1.0000   1.0000   1.0000
     1.0000   1.0000   1.0000   1.0000   1.0000   0.0000   0.0000   0.0000
     0.0000

          k = 0.4126 0.4126 0.4167 (   775 PWs)   bands (ev):

  -112.3477 -66.5512 -66.5453 -66.5399  -3.4375   5.4255   5.4299   5.6658
     7.1656   7.1682  10.1113  10.8330  10.8850  17.2679  18.5763  18.8113
    23.7038

     occupation numbers 
     1.0000   1.0000   1.0000   1.0000   1.0000   1.0000   1.0000   1.0000
     1.0000   1.0000   1.0000   1.0000   1.0000   0.0000   0.0000   0.0000
     0.0000

          k = 0.4126 0.4126-0.5000 (   770 PWs)   bands (ev):

  -112.3476 -66.5510 -66.5464 -66.5398  -3.3742   5.3765   5.3915   5.5488
     7.1709   7.2355  10.5004  10.5880  11.1099  17.2902  18.4898  18.5300
    23.1190

     occupation numbers 
     1.0000   1.0000   1.0000   1.0000   1.0000   1.0000   1.0000   1.0000
     1.0000   1.0000   1.0000   1.0000   1.0000   0.0000   0.0000   0.0000
     0.0000

          k = 0.4217-0.5042 0.0000 (   787 PWs)   bands (ev):

  -112.3487 -66.5533 -66.5419 -66.5296  -4.1323   6.1349   6.6683   6.7151
     6.7573   6.9737   7.7381   7.9782  12.2723  15.3473  21.9984  22.6051
    28.4103

     occupation numbers 
     1.0000   1.0000   1.0000   1.0000   1.0000   1.0000   1.0000   1.0000
     1.0000   1.0000   1.0000   1.0000   1.0001   0.0000   0.0000   0.0000
     0.0000

          k = 0.4217-0.5042 0.0833 (   789 PWs)   bands (ev):

  -112.3486 -66.5531 -66.5418 -66.5308  -4.0842   6.1724   6.3927   6.5105
     6.7659   7.1076   7.9684   8.2098  12.1451  15.4379  21.7821  22.3084
    28.6843

     occupation numbers 
     1.0000   1.0000   1.0000   1.0000   1.0000   1.0000   1.0000   1.0000
     1.0000   1.0000   1.0000   1.0000   1.0000   0.0000   0.0000   0.0000
     0.0000

          k = 0.4217-0.5042 0.1667 (   789 PWs)   bands (ev):

  -112.3484 -66.5529 -66.5415 -66.5338  -3.9484   6.0314   6.0455   6.4796
     6.5882   7.1740   8.5171   8.7551  11.8337  15.7124  21.1400  21.5081
    29.2074

     occupation numbers 
     1.0000   1.0000   1.0000   1.0000   1.0000   1.0000   1.0000   1.0000
     1.0000   1.0000   1.0000   1.0000   1.0000   0.0000   0.0000   0.0000
     0.0000

          k = 0.4217-0.5042 0.2500 (   784 PWs)   bands (ev):

  -112.3481 -66.5525 -66.5411 -66.5380  -3.7519   5.7395   5.7526   6.2501
     6.7250   7.1995   9.2004   9.4270  11.4822  16.1730  20.1516  20.4494
    26.9643

     occupation numbers 
     1.0000   1.0000   1.0000   1.0000   1.0000   1.0000   1.0000   1.0000
     1.0000   1.0000   1.0000   1.0000   1.0000   0.0000   0.0000   0.0000
     0.0000

          k = 0.4217-0.5042 0.3333 (   781 PWs)   bands (ev):

  -112.3478 -66.5521 -66.5422 -66.5407  -3.5403   5.5134   5.5328   5.8646
     6.9874   7.2146   9.9117  10.1004  11.2047  16.7898  19.0494  19.4077
    24.8586

     occupation numbers 
     1.0000   1.0000   1.0000   1.0000   1.0000   1.0000   1.0000   1.0000
     1.0000   1.0000   1.0000   1.0000   1.0000   0.0000   0.0000   0.0000
     0.0000

          k = 0.4217-0.5042 0.4167 (   781 PWs)   bands (ev):

  -112.3476 -66.5518 -66.5453 -66.5405  -3.3740   5.3813   5.3973   5.5504
     7.1695   7.2366  10.5040  10.6108  11.0638  17.3497  18.2775  18.6096
    23.2135

     occupation numbers 
     1.0000   1.0000   1.0000   1.0000   1.0000   1.0000   1.0000   1.0000
     1.0000   1.0000   1.0000   1.0000   1.0000   0.0000   0.0000   0.0000
     0.0000

          k = 0.4217-0.5042-0.5000 (   784 PWs)   bands (ev):

  -112.3475 -66.5518 -66.5464 -66.5403  -3.3104   5.3501   5.3507   5.4183
     7.2039   7.2769  10.7567  10.7572  11.0680  17.3978  18.2605  18.2757
    22.5212

     occupation numbers 
     1.0000   1.0000   1.0000   1.0000   1.0000   1.0000   1.0000   1.0000
     1.0000   1.0000   1.0000   1.0000   1.0000   0.0000   0.0000   0.0000
     0.0000

          k = 0.4209-0.4209 0.0000 (   786 PWs)   bands (ev):

  -112.3487 -66.5526 -66.5414 -66.5296  -4.1843   6.0497   6.6015   6.7199
     6.7498   6.8781   7.8531   8.0836  12.2848  15.6924  21.9780  22.4119
    28.7775

     occupation numbers 
     1.0000   1.0000   1.0000   1.0000   1.0000   1.0000   1.0000   1.0000
     1.0000   1.0000   1.0000   1.0000   1.0001   0.0000   0.0000   0.0000
     0.0000

          k = 0.4209-0.4209 0.0833 (   791 PWs)   bands (ev):

  -112.3487 -66.5525 -66.5414 -66.5309  -4.1367   6.0649   6.4382   6.4680
     6.7918   7.0262   7.9947   8.3076  12.1476  15.7776  21.8016  22.1452
    28.9686

     occupation numbers 
     1.0000   1.0000   1.0000   1.0000   1.0000   1.0000   1.0000   1.0000
     1.0000   1.0000   1.0000   1.0000   1.0000   0.0000   0.0000   0.0000
     0.0000

          k = 0.4209-0.4209 0.1667 (   787 PWs)   bands (ev):

  -112.3485 -66.5523 -66.5410 -66.5339  -4.0025   5.9410   6.1119   6.4602
     6.6769   7.1043   8.3948   8.8491  11.8107  16.0311  21.2416  21.4107
    28.7940

     occupation numbers 
     1.0000   1.0000   1.0000   1.0000   1.0000   1.0000   1.0000   1.0000
     1.0000   1.0000   1.0000   1.0000   1.0000   0.0000   0.0000   0.0000
     0.0000

          k = 0.4209-0.4209 0.2500 (   789 PWs)   bands (ev):

  -112.3482 -66.5520 -66.5407 -66.5381  -3.8085   5.7193   5.8051   6.3517
     6.7183   7.1375   8.9564   9.5307  11.4247  16.4398  20.3512  20.3873
    27.0081

     occupation numbers 
     1.0000   1.0000   1.0000   1.0000   1.0000   1.0000   1.0000   1.0000
     1.0000   1.0000   1.0000   1.0000   1.0000   0.0000   0.0000   0.0000
     0.0000

          k = 0.4209-0.4209 0.3333 (   783 PWs)   bands (ev):

  -112.3479 -66.5515 -66.5423 -66.5403  -3.5999   5.5381   5.5760   5.9843
     6.9753   7.1550   9.5809  10.2292  11.0962  16.9454  19.3197  19.3790
    25.2287

     occupation numbers 
     1.0000   1.0000   1.0000   1.0000   1.0000   1.0000   1.0000   1.0000
     1.0000   1.0000   1.0000   1.0000   1.0000   0.0000   0.0000   0.0000
     0.0000

          k = 0.4209-0.4209 0.4167 (   782 PWs)   bands (ev):

  -112.3477 -66.5513 -66.5453 -66.5400  -3.4362   5.4302   5.4355   5.6774
     7.1644   7.1679  10.1545  10.7938  10.8403  17.3417  18.4825  18.7200
    23.8577

     occupation numbers 
     1.0000   1.0000   1.0000   1.0000   1.0000   1.0000   1.0000   1.0000
     1.0000   1.0000   1.0000   1.0000   1.0000   0.0000   0.0000   0.0000
     0.0000

          k = 0.4209-0.4209-0.5000 (   790 PWs)   bands (ev):

  -112.3476 -66.5512 -66.5465 -66.5400  -3.3737   5.3882   5.4004   5.5526
     7.1674   7.2383  10.5239  10.6152  11.0207  17.4115  18.1564  18.5952
    23.3076

     occupation numbers 
     1.0000   1.0000   1.0000   1.0000   1.0000   1.0000   1.0000   1.0000
     1.0000   1.0000   1.0000   1.0000   1.0000   0.0000   0.0000   0.0000
     0.0000

          k =-0.4951-0.4951 0.0000 (   776 PWs)   bands (ev):

  -112.3486 -66.5536 -66.5423 -66.5295  -4.0798   6.2104   6.7311   6.7431
     6.7988   7.2602   7.5660   7.6710  12.2612  15.0079  22.2644  22.5804
    28.0361

     occupation numbers 
     1.0000   1.0000   1.0000   1.0000   1.0000   1.0000   1.0000   1.0000
     1.0000   1.0000   1.0000   1.0000   1.0000   0.0000   0.0000   0.0000
     0.0000

          k =-0.4951-0.4951 0.0833 (   786 PWs)   bands (ev):

  -112.3485 -66.5536 -66.5422 -66.5307  -4.0312   6.2790   6.4674   6.4863
     6.7164   7.2614   7.9226   8.0203  12.1408  15.0996  21.9764  22.2921
    28.3573

     occupation numbers 
     1.0000   1.0000   1.0000   1.0000   1.0000   1.0000   1.0000   1.0000
     1.0000   1.0000   1.0000   1.0000   1.0000   0.0000   0.0000   0.0000
     0.0000

          k =-0.4951-0.4951 0.1667 (   778 PWs)   bands (ev):

  -112.3483 -66.5533 -66.5419 -66.5337  -3.8937   6.0752   6.0903   6.4576
     6.4891   7.2646   8.5867   8.6864  11.8444  15.3820  21.1897  21.5061
    29.1971

     occupation numbers 
     1.0000   1.0000   1.0000   1.0000   1.0000   1.0000   1.0000   1.0000
     1.0000   1.0000   1.0000   1.0000   1.0000   0.0000   0.0000   0.0000
     0.0000

          k =-0.4951-0.4951 0.2500 (   780 PWs)   bands (ev):

  -112.3480 -66.5530 -66.5415 -66.5379  -3.6945   5.7438   5.7511   6.1192
     6.7345   7.2690   9.3429   9.4459  11.5057  15.8734  20.1039  20.4252
    26.7763

     occupation numbers 
     1.0000   1.0000   1.0000   1.0000   1.0000   1.0000   1.0000   1.0000
     1.0000   1.0000   1.0000   1.0000   1.0000   0.0000   0.0000   0.0000
     0.0000

          k =-0.4951-0.4951 0.3333 (   780 PWs)   bands (ev):

  -112.3477 -66.5526 -66.5421 -66.5412  -3.4797   5.5007   5.5010   5.7268
     7.0040   7.2733  10.0996  10.2015  11.2296  16.5817  18.9752  19.3065
    24.4080

     occupation numbers 
     1.0000   1.0000   1.0000   1.0000   1.0000   1.0000   1.0000   1.0000
     1.0000   1.0000   1.0000   1.0000   1.0000   0.0000   0.0000   0.0000
     0.0000

          k =-0.4951-0.4951 0.4167 (   780 PWs)   bands (ev):

  -112.3475 -66.5524 -66.5452 -66.5408  -3.3105   5.3487   5.3529   5.4176
     7.2043   7.2766  10.7132  10.8086  11.0600  17.4220  18.0855  18.4298
    22.5180

     occupation numbers 
     1.0000   1.0000   1.0000   1.0000   1.0000   1.0000   1.0000   1.0000
     1.0000   1.0000   1.0000   1.0000   1.0000   0.0000   0.0000   0.0000
     0.0000

          k =-0.4951-0.4951-0.5000 (   780 PWs)   bands (ev):

  -112.3474 -66.5524 -66.5462 -66.5406  -3.2457   5.2977   5.2998   5.3034
     7.2777   7.2782  10.9625  11.0039  11.0532  17.7358  17.9140  18.0871
    21.6670

     occupation numbers 
     1.0000   1.0000   1.0000   1.0000   1.0000   1.0000   1.0000   1.0000
     1.0000   1.0000   1.0000   1.0000   1.0000   0.0000   0.0000   0.0000
     0.0000

     the Fermi energy is    12.9938 ev

     WARNING: integrated charge=    26.00876289, expected=    26.00000000

!    total energy              =    -503.17145931 Ry
     estimated scf accuracy    <          4.4E-09 Ry
     smearing contrib. (-TS)   =       0.00000882 Ry
     internal energy E=F+TS    =    -503.17146813 Ry

     The total energy is F=E-TS. E is the sum of the following terms:
     one-electron contribution =    -353.09132819 Ry
     hartree contribution      =     190.18712159 Ry
     xc contribution           =     -49.70842385 Ry
     ewald contribution        =    -281.02764391 Ry
     one-center paw contrib.   =      -9.53119377 Ry
      -> PAW hartree energy AE =      25.60448597 Ry
      -> PAW hartree energy PS =     -25.49069107 Ry
      -> PAW xc energy AE      =     -16.59436616 Ry
      -> PAW xc energy PS      =       6.94937749 Ry
      -> total E_H with PAW    =     190.30091649 Ry
      -> total E_XC with PAW   =     -59.35341252 Ry

     convergence has been achieved in   9 iterations

     Forces acting on atoms (cartesian axes, Ry/au):

     atom    1 type  2   force =     0.00000000    0.00000000    0.00000000
     atom    2 type  1   force =     0.00000000    0.00000000    0.00000000
     The non-local contrib.  to forces
     atom    1 type  2   force =     0.00000000    0.00000000    0.00000000
     atom    2 type  1   force =     0.00000000    0.00000000    0.00000000
     The ionic contribution  to forces
     atom    1 type  2   force =    -0.00000000   -0.00000000   -0.00000000
     atom    2 type  1   force =     0.00000000    0.00000000    0.00000000
     The local contribution  to forces
     atom    1 type  2   force =     0.00000000    0.00000000    0.00000000
     atom    2 type  1   force =    -0.00000000   -0.00000000    0.00000000
     The core correction contribution to forces
     atom    1 type  2   force =     0.00000000    0.00000000    0.00000000
     atom    2 type  1   force =     0.00000000    0.00000000   -0.00000000
     The Hubbard contrib.    to forces
     atom    1 type  2   force =     0.00000000    0.00000000    0.00000000
     atom    2 type  1   force =     0.00000000    0.00000000    0.00000000
     The SCF correction term to forces
     atom    1 type  2   force =     0.00000000   -0.00000000    0.00000000
     atom    2 type  1   force =    -0.00000000   -0.00000000   -0.00000000

     Total force =     0.000000     Total SCF correction =     0.000000


     Computing stress (Cartesian axis) and pressure

          total   stress  (Ry/bohr**3)                   (kbar)     P=        9.18
   0.00006277   0.00008439   0.00000000            9.23       12.41        0.00
   0.00008439   0.00006277   0.00000000           12.41        9.23        0.00
   0.00000000   0.00000000   0.00006165            0.00        0.00        9.07

     kinetic stress (kbar)  42468.64     43.75      0.00
                               43.75  42468.64      0.00
                                0.00      0.00  42467.65

     local   stress (kbar)  10067.14    767.36      0.00
                              767.36  10067.14      0.00
                                0.00      0.00  10024.60

     nonloc. stress (kbar)   -941.46    -14.69      0.00
                              -14.69   -941.46      0.00
                                0.00      0.00   -940.89

     hartree stress (kbar)  70850.79   -283.15     -0.00
                             -283.15  70850.79     -0.00
                               -0.00     -0.00  70867.51

     exc-cor stress (kbar) -17252.29     -1.04      0.00
                               -1.04 -17252.29     -0.00
                                0.00     -0.00 -17252.25

     corecor stress (kbar)   -474.88     -0.12      0.00
                               -0.12   -474.88      0.00
                                0.00      0.00   -474.88

     ewald   stress (kbar)-104708.71   -499.69      0.00
                             -499.69-104708.71     -0.00
                                0.00     -0.00-104682.67

     hubbard stress (kbar)      0.00      0.00      0.00
                                0.00      0.00      0.00
                                0.00      0.00      0.00

     DFT-D   stress (kbar)      0.00      0.00      0.00
                                0.00      0.00      0.00
                                0.00      0.00      0.00

     XDM     stress (kbar)      0.00      0.00      0.00
                                0.00      0.00      0.00
                                0.00      0.00      0.00

     dft-nl  stress (kbar)      0.00      0.00      0.00
                                0.00      0.00      0.00
                                0.00      0.00      0.00

     TS-vdW  stress (kbar)      0.00      0.00      0.00
                                0.00      0.00      0.00
                                0.00      0.00      0.00

     MDB     stress (kbar)      0.00      0.00      0.00
                                0.00      0.00      0.00
                                0.00      0.00      0.00

     3D-RISM stress (kbar)      0.00      0.00      0.00
                                0.00      0.00      0.00
                                0.00      0.00      0.00


     Writing all to output data dir ./temp_cubic/aiida.save/ :
     XML data file, charge density, pseudopotentials, collected wavefunctions

     init_run     :     73.97s CPU      3.33s WALL (       1 calls)
     electrons    :   2372.50s CPU     99.97s WALL (       1 calls)
     forces       :     22.10s CPU      0.95s WALL (       1 calls)
     stress       :     28.47s CPU      1.40s WALL (       1 calls)

     Called by init_run:
     wfcinit      :     71.04s CPU      2.97s WALL (       1 calls)
     wfcinit:atom :      1.47s CPU      0.07s WALL (     301 calls)
     wfcinit:wfcr :     61.81s CPU      2.66s WALL (     301 calls)
     potinit      :      0.83s CPU      0.05s WALL (       1 calls)
     hinit0       :      1.06s CPU      0.22s WALL (       1 calls)

     Called by electrons:
     c_bands      :   2102.77s CPU     88.22s WALL (       9 calls)
     sum_band     :    261.17s CPU     11.19s WALL (       9 calls)
     v_of_rho     :      1.01s CPU      0.08s WALL (      10 calls)
     v_h          :      0.45s CPU      0.01s WALL (      10 calls)
     v_xc         :      0.72s CPU      0.08s WALL (      12 calls)
     newd         :      5.61s CPU      0.41s WALL (      10 calls)
     PAW_pot      :      2.09s CPU      0.08s WALL (      10 calls)
     mix_rho      :      0.24s CPU      0.01s WALL (       9 calls)

     Called by c_bands:
     init_us_2    :     31.70s CPU      1.40s WALL (    6321 calls)
     cegterg      :   1922.01s CPU     81.02s WALL (    2709 calls)

     Called by sum_band:
     sum_band:wei :      1.26s CPU      0.04s WALL (       9 calls)
     sum_band:loo :    256.10s CPU     10.71s WALL (       9 calls)
     sum_band:buf :      2.35s CPU      0.07s WALL (    2709 calls)
     sum_band:ini :     10.13s CPU      0.42s WALL (    2709 calls)
     sum_band:cal :     29.81s CPU      1.38s WALL (    2709 calls)
     sum_band:bec :     10.17s CPU      0.41s WALL (    2709 calls)
     addusdens    :      3.53s CPU      0.39s WALL (       9 calls)
                                        0.00s GPU  (       9 calls)
     addusd:skk   :      0.00s CPU      0.00s WALL (      18 calls)
                                        0.00s GPU  (      18 calls)

     Called by *egterg:
     cdiaghg      :     46.27s CPU      2.30s WALL (    8579 calls)
     cegterg:over :    114.44s CPU      4.97s WALL (    5870 calls)
     cegterg:upda :    103.23s CPU      3.82s WALL (    5870 calls)
     cegterg:last :    186.26s CPU      7.35s WALL (    5232 calls)
     h_psi        :   1315.93s CPU     55.90s WALL (    8880 calls)
     s_psi        :     98.70s CPU      3.99s WALL (    8880 calls)
     g_psi        :     23.13s CPU      1.07s WALL (    5870 calls)

     Called by h_psi:
     h_psi:calbec :     93.46s CPU      3.64s WALL (    8880 calls)
     vloc_psi     :   1101.26s CPU     46.90s WALL (    8880 calls)
     add_vuspsi   :     90.03s CPU      4.01s WALL (    8880 calls)

     General routines
     calbec       :    140.74s CPU      5.72s WALL (   13094 calls)
     fft          :      1.12s CPU      0.07s WALL (     153 calls)
     ffts         :      0.00s CPU      0.00s WALL (      19 calls)
     fftw         :    526.50s CPU     22.73s WALL (  269853 calls)
     interpolate  :      0.01s CPU      0.01s WALL (      10 calls)

     Parallel routines

     PAW routines
     PAW_pot      :      2.09s CPU      0.08s WALL (      10 calls)
     PAW_symme    :      0.00s CPU      0.00s WALL (      19 calls)

     PWSCF        :  42m 6.59s CPU   1m47.41s WALL


   This run was terminated on:  17:14:14  13Jun2024            

=------------------------------------------------------------------------------=
   JOB DONE.
=------------------------------------------------------------------------------=
