
     Program PWSCF v.7.3.1 starts on  8Jun2024 at 13:42:56 

     This program is part of the open-source Quantum ESPRESSO suite
     for quantum simulation of materials; please cite
         "P. Giannozzi et al., J. Phys.:Condens. Matter 21 395502 (2009);
         "P. Giannozzi et al., J. Phys.:Condens. Matter 29 465901 (2017);
         "P. Giannozzi et al., J. Chem. Phys. 152 154105 (2020);
          URL http://www.quantum-espresso.org", 
     in publications or presentations arising from this work. More details at
     http://www.quantum-espresso.org/quote

     Parallel version (MPI & OpenMP), running on      24 processor cores
     Number of MPI processes:                 1
     Threads/MPI process:                    24

     MPI processes distributed on     1 nodes
     5412 MiB available memory on the printing compute node when the environment starts

     Waiting for input...
     Reading input from standard input

     Current dimensions of program PWSCF are:
     Max number of different atomic species (ntypx) = 10
     Max number of k-points (npk) =  40000
     Max angular momentum in pseudopotentials (lmaxx) =  4
     file O.pbe-n-kjpaw_psl.0.1.UPF: wavefunction(s)  2P renormalized
     Message from routine setup:
     using ibrav=0 with symmetry is DISCOURAGED, use correct ibrav instead

     Subspace diagonalization in iterative solution of the eigenvalue problem:
     a serial algorithm will be used


     G-vector sticks info
     --------------------
     sticks:   dense  smooth     PW     G-vecs:    dense   smooth      PW
     Sum         725     357    121                14771     5185    1021

     Using Slab Decomposition



     bravais-lattice index     =            0
     lattice parameter (alat)  =       4.7817  a.u.
     unit-cell volume          =     109.3291 (a.u.)^3
     number of atoms/cell      =            2
     number of atomic types    =            2
     number of electrons       =        26.00
     number of Kohn-Sham states=           17
     kinetic-energy cutoff     =      50.0000  Ry
     charge density cutoff     =     400.0000  Ry
     scf convergence threshold =      1.0E-08
     mixing beta               =       0.4000
     number of iterations used =            8  plain     mixing
     Exchange-correlation= SLA  PW   PBE  PBE
                           (   1   4   3   4   0   0   0)

     celldm(1)=   4.781658  celldm(2)=   0.000000  celldm(3)=   0.000000
     celldm(4)=   0.000000  celldm(5)=   0.000000  celldm(6)=   0.000000

     crystal axes: (cart. coord. in units of alat)
               a(1) = (   1.000000   0.000000   0.000000 )  
               a(2) = (   0.000000   1.000000   0.000000 )  
               a(3) = (   0.000000   0.000000   1.000000 )  

     reciprocal axes: (cart. coord. in units 2 pi/alat)
               b(1) = (  1.000000  0.000000  0.000000 )  
               b(2) = (  0.000000  1.000000  0.000000 )  
               b(3) = (  0.000000  0.000000  1.000000 )  


     PseudoPot. # 1 for O  read from file:
     ../SSSP_1.3.0_PBE_efficiency/O.pbe-n-kjpaw_psl.0.1.UPF
     MD5 check sum: 0234752ac141de4415c5fc33072bef88
     Pseudo is Projector augmented-wave + core cor, Zval =  6.0
     Generated using "atomic" code by A. Dal Corso  v.5.0.99 svn rev. 10869
     Shape of augmentation charge: BESSEL
     Using radial grid of 1095 points,  4 beta functions with: 
                l(1) =   0
                l(2) =   0
                l(3) =   1
                l(4) =   1
     Q(r) pseudized with 0 coefficients 


     PseudoPot. # 2 for Zn read from file:
     ../SSSP_1.3.0_PBE_efficiency/Zn_pbe_v1.uspp.F.UPF
     MD5 check sum: df62231357ef9e81f77b2b3087fa5675
     Pseudo is Ultrasoft, Zval = 20.0
     Generated by new atomic code, or converted to UPF format
     Using radial grid of  943 points,  6 beta functions with: 
                l(1) =   0
                l(2) =   0
                l(3) =   1
                l(4) =   1
                l(5) =   2
                l(6) =   2
     Q(r) pseudized with  8 coefficients,  rinner =    1.100   1.100   1.100
                                                       1.100   1.100

     atomic species   valence    mass     pseudopotential
     O                 6.00    15.99940     O ( 1.00)
     Zn               20.00    65.38000     Zn( 1.00)

     48 Sym. Ops., with inversion, found


                                    s                        frac. trans.

      isym =  1     identity                                     

 cryst.   s( 1) = (     1          0          0      )
                  (     0          1          0      )
                  (     0          0          1      )

 cart.    s( 1) = (  1.0000000  0.0000000  0.0000000 )
                  (  0.0000000  1.0000000  0.0000000 )
                  (  0.0000000  0.0000000  1.0000000 )


      isym =  2     180 deg rotation - cart. axis [0,0,1]        

 cryst.   s( 2) = (    -1          0          0      )
                  (     0         -1          0      )
                  (     0          0          1      )

 cart.    s( 2) = ( -1.0000000  0.0000000  0.0000000 )
                  (  0.0000000 -1.0000000  0.0000000 )
                  (  0.0000000  0.0000000  1.0000000 )


      isym =  3     180 deg rotation - cart. axis [0,1,0]        

 cryst.   s( 3) = (    -1          0          0      )
                  (     0          1          0      )
                  (     0          0         -1      )

 cart.    s( 3) = ( -1.0000000  0.0000000  0.0000000 )
                  (  0.0000000  1.0000000  0.0000000 )
                  (  0.0000000  0.0000000 -1.0000000 )


      isym =  4     180 deg rotation - cart. axis [1,0,0]        

 cryst.   s( 4) = (     1          0          0      )
                  (     0         -1          0      )
                  (     0          0         -1      )

 cart.    s( 4) = (  1.0000000  0.0000000  0.0000000 )
                  (  0.0000000 -1.0000000  0.0000000 )
                  (  0.0000000  0.0000000 -1.0000000 )


      isym =  5     180 deg rotation - cart. axis [1,1,0]        

 cryst.   s( 5) = (     0          1          0      )
                  (     1          0          0      )
                  (     0          0         -1      )

 cart.    s( 5) = (  0.0000000  1.0000000  0.0000000 )
                  (  1.0000000  0.0000000  0.0000000 )
                  (  0.0000000  0.0000000 -1.0000000 )


      isym =  6     180 deg rotation - cart. axis [1,-1,0]       

 cryst.   s( 6) = (     0         -1          0      )
                  (    -1          0          0      )
                  (     0          0         -1      )

 cart.    s( 6) = (  0.0000000 -1.0000000  0.0000000 )
                  ( -1.0000000  0.0000000  0.0000000 )
                  (  0.0000000  0.0000000 -1.0000000 )


      isym =  7      90 deg rotation - cart. axis [0,0,-1]       

 cryst.   s( 7) = (     0         -1          0      )
                  (     1          0          0      )
                  (     0          0          1      )

 cart.    s( 7) = (  0.0000000  1.0000000  0.0000000 )
                  ( -1.0000000  0.0000000  0.0000000 )
                  (  0.0000000  0.0000000  1.0000000 )


      isym =  8      90 deg rotation - cart. axis [0,0,1]        

 cryst.   s( 8) = (     0          1          0      )
                  (    -1          0          0      )
                  (     0          0          1      )

 cart.    s( 8) = (  0.0000000 -1.0000000  0.0000000 )
                  (  1.0000000  0.0000000  0.0000000 )
                  (  0.0000000  0.0000000  1.0000000 )


      isym =  9     180 deg rotation - cart. axis [1,0,1]        

 cryst.   s( 9) = (     0          0          1      )
                  (     0         -1          0      )
                  (     1          0          0      )

 cart.    s( 9) = (  0.0000000  0.0000000  1.0000000 )
                  (  0.0000000 -1.0000000  0.0000000 )
                  (  1.0000000  0.0000000  0.0000000 )


      isym = 10     180 deg rotation - cart. axis [-1,0,1]       

 cryst.   s(10) = (     0          0         -1      )
                  (     0         -1          0      )
                  (    -1          0          0      )

 cart.    s(10) = (  0.0000000  0.0000000 -1.0000000 )
                  (  0.0000000 -1.0000000  0.0000000 )
                  ( -1.0000000  0.0000000  0.0000000 )


      isym = 11      90 deg rotation - cart. axis [0,1,0]        

 cryst.   s(11) = (     0          0         -1      )
                  (     0          1          0      )
                  (     1          0          0      )

 cart.    s(11) = (  0.0000000  0.0000000  1.0000000 )
                  (  0.0000000  1.0000000  0.0000000 )
                  ( -1.0000000  0.0000000  0.0000000 )


      isym = 12      90 deg rotation - cart. axis [0,-1,0]       

 cryst.   s(12) = (     0          0          1      )
                  (     0          1          0      )
                  (    -1          0          0      )

 cart.    s(12) = (  0.0000000  0.0000000 -1.0000000 )
                  (  0.0000000  1.0000000  0.0000000 )
                  (  1.0000000  0.0000000  0.0000000 )


      isym = 13     180 deg rotation - cart. axis [0,1,1]        

 cryst.   s(13) = (    -1          0          0      )
                  (     0          0          1      )
                  (     0          1          0      )

 cart.    s(13) = ( -1.0000000  0.0000000  0.0000000 )
                  (  0.0000000  0.0000000  1.0000000 )
                  (  0.0000000  1.0000000  0.0000000 )


      isym = 14     180 deg rotation - cart. axis [0,1,-1]       

 cryst.   s(14) = (    -1          0          0      )
                  (     0          0         -1      )
                  (     0         -1          0      )

 cart.    s(14) = ( -1.0000000  0.0000000  0.0000000 )
                  (  0.0000000  0.0000000 -1.0000000 )
                  (  0.0000000 -1.0000000  0.0000000 )


      isym = 15      90 deg rotation - cart. axis [-1,0,0]       

 cryst.   s(15) = (     1          0          0      )
                  (     0          0         -1      )
                  (     0          1          0      )

 cart.    s(15) = (  1.0000000  0.0000000  0.0000000 )
                  (  0.0000000  0.0000000  1.0000000 )
                  (  0.0000000 -1.0000000  0.0000000 )


      isym = 16      90 deg rotation - cart. axis [1,0,0]        

 cryst.   s(16) = (     1          0          0      )
                  (     0          0          1      )
                  (     0         -1          0      )

 cart.    s(16) = (  1.0000000  0.0000000  0.0000000 )
                  (  0.0000000  0.0000000 -1.0000000 )
                  (  0.0000000  1.0000000  0.0000000 )


      isym = 17     120 deg rotation - cart. axis [-1,-1,-1]     

 cryst.   s(17) = (     0          0          1      )
                  (     1          0          0      )
                  (     0          1          0      )

 cart.    s(17) = (  0.0000000  1.0000000  0.0000000 )
                  (  0.0000000  0.0000000  1.0000000 )
                  (  1.0000000  0.0000000  0.0000000 )


      isym = 18     120 deg rotation - cart. axis [-1,1,1]       

 cryst.   s(18) = (     0          0         -1      )
                  (    -1          0          0      )
                  (     0          1          0      )

 cart.    s(18) = (  0.0000000 -1.0000000  0.0000000 )
                  (  0.0000000  0.0000000  1.0000000 )
                  ( -1.0000000  0.0000000  0.0000000 )


      isym = 19     120 deg rotation - cart. axis [1,1,-1]       

 cryst.   s(19) = (     0          0         -1      )
                  (     1          0          0      )
                  (     0         -1          0      )

 cart.    s(19) = (  0.0000000  1.0000000  0.0000000 )
                  (  0.0000000  0.0000000 -1.0000000 )
                  ( -1.0000000  0.0000000  0.0000000 )


      isym = 20     120 deg rotation - cart. axis [1,-1,1]       

 cryst.   s(20) = (     0          0          1      )
                  (    -1          0          0      )
                  (     0         -1          0      )

 cart.    s(20) = (  0.0000000 -1.0000000  0.0000000 )
                  (  0.0000000  0.0000000 -1.0000000 )
                  (  1.0000000  0.0000000  0.0000000 )


      isym = 21     120 deg rotation - cart. axis [1,1,1]        

 cryst.   s(21) = (     0          1          0      )
                  (     0          0          1      )
                  (     1          0          0      )

 cart.    s(21) = (  0.0000000  0.0000000  1.0000000 )
                  (  1.0000000  0.0000000  0.0000000 )
                  (  0.0000000  1.0000000  0.0000000 )


      isym = 22     120 deg rotation - cart. axis [-1,1,-1]      

 cryst.   s(22) = (     0         -1          0      )
                  (     0          0         -1      )
                  (     1          0          0      )

 cart.    s(22) = (  0.0000000  0.0000000  1.0000000 )
                  ( -1.0000000  0.0000000  0.0000000 )
                  (  0.0000000 -1.0000000  0.0000000 )


      isym = 23     120 deg rotation - cart. axis [1,-1,-1]      

 cryst.   s(23) = (     0         -1          0      )
                  (     0          0          1      )
                  (    -1          0          0      )

 cart.    s(23) = (  0.0000000  0.0000000 -1.0000000 )
                  ( -1.0000000  0.0000000  0.0000000 )
                  (  0.0000000  1.0000000  0.0000000 )


      isym = 24     120 deg rotation - cart. axis [-1,-1,1]      

 cryst.   s(24) = (     0          1          0      )
                  (     0          0         -1      )
                  (    -1          0          0      )

 cart.    s(24) = (  0.0000000  0.0000000 -1.0000000 )
                  (  1.0000000  0.0000000  0.0000000 )
                  (  0.0000000 -1.0000000  0.0000000 )


      isym = 25     inversion                                    

 cryst.   s(25) = (    -1          0          0      )
                  (     0         -1          0      )
                  (     0          0         -1      )

 cart.    s(25) = ( -1.0000000  0.0000000  0.0000000 )
                  (  0.0000000 -1.0000000  0.0000000 )
                  (  0.0000000  0.0000000 -1.0000000 )


      isym = 26     inv. 180 deg rotation - cart. axis [0,0,1]   

 cryst.   s(26) = (     1          0          0      )
                  (     0          1          0      )
                  (     0          0         -1      )

 cart.    s(26) = (  1.0000000  0.0000000  0.0000000 )
                  (  0.0000000  1.0000000  0.0000000 )
                  (  0.0000000  0.0000000 -1.0000000 )


      isym = 27     inv. 180 deg rotation - cart. axis [0,1,0]   

 cryst.   s(27) = (     1          0          0      )
                  (     0         -1          0      )
                  (     0          0          1      )

 cart.    s(27) = (  1.0000000  0.0000000  0.0000000 )
                  (  0.0000000 -1.0000000  0.0000000 )
                  (  0.0000000  0.0000000  1.0000000 )


      isym = 28     inv. 180 deg rotation - cart. axis [1,0,0]   

 cryst.   s(28) = (    -1          0          0      )
                  (     0          1          0      )
                  (     0          0          1      )

 cart.    s(28) = ( -1.0000000  0.0000000  0.0000000 )
                  (  0.0000000  1.0000000  0.0000000 )
                  (  0.0000000  0.0000000  1.0000000 )


      isym = 29     inv. 180 deg rotation - cart. axis [1,1,0]   

 cryst.   s(29) = (     0         -1          0      )
                  (    -1          0          0      )
                  (     0          0          1      )

 cart.    s(29) = (  0.0000000 -1.0000000  0.0000000 )
                  ( -1.0000000  0.0000000  0.0000000 )
                  (  0.0000000  0.0000000  1.0000000 )


      isym = 30     inv. 180 deg rotation - cart. axis [1,-1,0]  

 cryst.   s(30) = (     0          1          0      )
                  (     1          0          0      )
                  (     0          0          1      )

 cart.    s(30) = (  0.0000000  1.0000000  0.0000000 )
                  (  1.0000000  0.0000000  0.0000000 )
                  (  0.0000000  0.0000000  1.0000000 )


      isym = 31     inv.  90 deg rotation - cart. axis [0,0,-1]  

 cryst.   s(31) = (     0          1          0      )
                  (    -1          0          0      )
                  (     0          0         -1      )

 cart.    s(31) = (  0.0000000 -1.0000000  0.0000000 )
                  (  1.0000000  0.0000000  0.0000000 )
                  (  0.0000000  0.0000000 -1.0000000 )


      isym = 32     inv.  90 deg rotation - cart. axis [0,0,1]   

 cryst.   s(32) = (     0         -1          0      )
                  (     1          0          0      )
                  (     0          0         -1      )

 cart.    s(32) = (  0.0000000  1.0000000  0.0000000 )
                  ( -1.0000000  0.0000000  0.0000000 )
                  (  0.0000000  0.0000000 -1.0000000 )


      isym = 33     inv. 180 deg rotation - cart. axis [1,0,1]   

 cryst.   s(33) = (     0          0         -1      )
                  (     0          1          0      )
                  (    -1          0          0      )

 cart.    s(33) = (  0.0000000  0.0000000 -1.0000000 )
                  (  0.0000000  1.0000000  0.0000000 )
                  ( -1.0000000  0.0000000  0.0000000 )


      isym = 34     inv. 180 deg rotation - cart. axis [-1,0,1]  

 cryst.   s(34) = (     0          0          1      )
                  (     0          1          0      )
                  (     1          0          0      )

 cart.    s(34) = (  0.0000000  0.0000000  1.0000000 )
                  (  0.0000000  1.0000000  0.0000000 )
                  (  1.0000000  0.0000000  0.0000000 )


      isym = 35     inv.  90 deg rotation - cart. axis [0,1,0]   

 cryst.   s(35) = (     0          0          1      )
                  (     0         -1          0      )
                  (    -1          0          0      )

 cart.    s(35) = (  0.0000000  0.0000000 -1.0000000 )
                  (  0.0000000 -1.0000000  0.0000000 )
                  (  1.0000000  0.0000000  0.0000000 )


      isym = 36     inv.  90 deg rotation - cart. axis [0,-1,0]  

 cryst.   s(36) = (     0          0         -1      )
                  (     0         -1          0      )
                  (     1          0          0      )

 cart.    s(36) = (  0.0000000  0.0000000  1.0000000 )
                  (  0.0000000 -1.0000000  0.0000000 )
                  ( -1.0000000  0.0000000  0.0000000 )


      isym = 37     inv. 180 deg rotation - cart. axis [0,1,1]   

 cryst.   s(37) = (     1          0          0      )
                  (     0          0         -1      )
                  (     0         -1          0      )

 cart.    s(37) = (  1.0000000  0.0000000  0.0000000 )
                  (  0.0000000  0.0000000 -1.0000000 )
                  (  0.0000000 -1.0000000  0.0000000 )


      isym = 38     inv. 180 deg rotation - cart. axis [0,1,-1]  

 cryst.   s(38) = (     1          0          0      )
                  (     0          0          1      )
                  (     0          1          0      )

 cart.    s(38) = (  1.0000000  0.0000000  0.0000000 )
                  (  0.0000000  0.0000000  1.0000000 )
                  (  0.0000000  1.0000000  0.0000000 )


      isym = 39     inv.  90 deg rotation - cart. axis [-1,0,0]  

 cryst.   s(39) = (    -1          0          0      )
                  (     0          0          1      )
                  (     0         -1          0      )

 cart.    s(39) = ( -1.0000000  0.0000000  0.0000000 )
                  (  0.0000000  0.0000000 -1.0000000 )
                  (  0.0000000  1.0000000  0.0000000 )


      isym = 40     inv.  90 deg rotation - cart. axis [1,0,0]   

 cryst.   s(40) = (    -1          0          0      )
                  (     0          0         -1      )
                  (     0          1          0      )

 cart.    s(40) = ( -1.0000000  0.0000000  0.0000000 )
                  (  0.0000000  0.0000000  1.0000000 )
                  (  0.0000000 -1.0000000  0.0000000 )


      isym = 41     inv. 120 deg rotation - cart. axis [-1,-1,-1]

 cryst.   s(41) = (     0          0         -1      )
                  (    -1          0          0      )
                  (     0         -1          0      )

 cart.    s(41) = (  0.0000000 -1.0000000  0.0000000 )
                  (  0.0000000  0.0000000 -1.0000000 )
                  ( -1.0000000  0.0000000  0.0000000 )


      isym = 42     inv. 120 deg rotation - cart. axis [-1,1,1]  

 cryst.   s(42) = (     0          0          1      )
                  (     1          0          0      )
                  (     0         -1          0      )

 cart.    s(42) = (  0.0000000  1.0000000  0.0000000 )
                  (  0.0000000  0.0000000 -1.0000000 )
                  (  1.0000000  0.0000000  0.0000000 )


      isym = 43     inv. 120 deg rotation - cart. axis [1,1,-1]  

 cryst.   s(43) = (     0          0          1      )
                  (    -1          0          0      )
                  (     0          1          0      )

 cart.    s(43) = (  0.0000000 -1.0000000  0.0000000 )
                  (  0.0000000  0.0000000  1.0000000 )
                  (  1.0000000  0.0000000  0.0000000 )


      isym = 44     inv. 120 deg rotation - cart. axis [1,-1,1]  

 cryst.   s(44) = (     0          0         -1      )
                  (     1          0          0      )
                  (     0          1          0      )

 cart.    s(44) = (  0.0000000  1.0000000  0.0000000 )
                  (  0.0000000  0.0000000  1.0000000 )
                  ( -1.0000000  0.0000000  0.0000000 )


      isym = 45     inv. 120 deg rotation - cart. axis [1,1,1]   

 cryst.   s(45) = (     0         -1          0      )
                  (     0          0         -1      )
                  (    -1          0          0      )

 cart.    s(45) = (  0.0000000  0.0000000 -1.0000000 )
                  ( -1.0000000  0.0000000  0.0000000 )
                  (  0.0000000 -1.0000000  0.0000000 )


      isym = 46     inv. 120 deg rotation - cart. axis [-1,1,-1] 

 cryst.   s(46) = (     0          1          0      )
                  (     0          0          1      )
                  (    -1          0          0      )

 cart.    s(46) = (  0.0000000  0.0000000 -1.0000000 )
                  (  1.0000000  0.0000000  0.0000000 )
                  (  0.0000000  1.0000000  0.0000000 )


      isym = 47     inv. 120 deg rotation - cart. axis [1,-1,-1] 

 cryst.   s(47) = (     0          1          0      )
                  (     0          0         -1      )
                  (     1          0          0      )

 cart.    s(47) = (  0.0000000  0.0000000  1.0000000 )
                  (  1.0000000  0.0000000  0.0000000 )
                  (  0.0000000 -1.0000000  0.0000000 )


      isym = 48     inv. 120 deg rotation - cart. axis [-1,-1,1] 

 cryst.   s(48) = (     0         -1          0      )
                  (     0          0          1      )
                  (     1          0          0      )

 cart.    s(48) = (  0.0000000  0.0000000  1.0000000 )
                  ( -1.0000000  0.0000000  0.0000000 )
                  (  0.0000000  1.0000000  0.0000000 )


   Cartesian axes

     site n.     atom                  positions (alat units)
         1        Zn     tau(   1) = (   0.0000000   0.0000000   0.0000000  )
         2        O      tau(   2) = (   0.5000000   0.5000000   0.5000000  )

   Crystallographic axes

     site n.     atom                  positions (cryst. coord.)
         1        Zn     tau(   1) = (  0.0000000  0.0000000  0.0000000  )
         2        O      tau(   2) = (  0.5000000  0.5000000  0.5000000  )

     number of k points=    84  Marzari-Vanderbilt smearing, width (Ry)=  0.0147
                       cart. coord. in units 2pi/alat
        k(    1) = (   0.0000000   0.0000000   0.0000000), wk =   0.0011574
        k(    2) = (   0.0000000   0.0000000   0.0833333), wk =   0.0069444
        k(    3) = (   0.0000000   0.0000000   0.1666667), wk =   0.0069444
        k(    4) = (   0.0000000   0.0000000   0.2500000), wk =   0.0069444
        k(    5) = (   0.0000000   0.0000000   0.3333333), wk =   0.0069444
        k(    6) = (   0.0000000   0.0000000   0.4166667), wk =   0.0069444
        k(    7) = (   0.0000000   0.0000000  -0.5000000), wk =   0.0034722
        k(    8) = (   0.0000000   0.0833333   0.0833333), wk =   0.0138889
        k(    9) = (   0.0000000   0.0833333   0.1666667), wk =   0.0277778
        k(   10) = (   0.0000000   0.0833333   0.2500000), wk =   0.0277778
        k(   11) = (   0.0000000   0.0833333   0.3333333), wk =   0.0277778
        k(   12) = (   0.0000000   0.0833333   0.4166667), wk =   0.0277778
        k(   13) = (   0.0000000   0.0833333  -0.5000000), wk =   0.0138889
        k(   14) = (   0.0000000   0.1666667   0.1666667), wk =   0.0138889
        k(   15) = (   0.0000000   0.1666667   0.2500000), wk =   0.0277778
        k(   16) = (   0.0000000   0.1666667   0.3333333), wk =   0.0277778
        k(   17) = (   0.0000000   0.1666667   0.4166667), wk =   0.0277778
        k(   18) = (   0.0000000   0.1666667  -0.5000000), wk =   0.0138889
        k(   19) = (   0.0000000   0.2500000   0.2500000), wk =   0.0138889
        k(   20) = (   0.0000000   0.2500000   0.3333333), wk =   0.0277778
        k(   21) = (   0.0000000   0.2500000   0.4166667), wk =   0.0277778
        k(   22) = (   0.0000000   0.2500000  -0.5000000), wk =   0.0138889
        k(   23) = (   0.0000000   0.3333333   0.3333333), wk =   0.0138889
        k(   24) = (   0.0000000   0.3333333   0.4166667), wk =   0.0277778
        k(   25) = (   0.0000000   0.3333333  -0.5000000), wk =   0.0138889
        k(   26) = (   0.0000000   0.4166667   0.4166667), wk =   0.0138889
        k(   27) = (   0.0000000   0.4166667  -0.5000000), wk =   0.0138889
        k(   28) = (   0.0000000  -0.5000000  -0.5000000), wk =   0.0034722
        k(   29) = (   0.0833333   0.0833333   0.0833333), wk =   0.0092593
        k(   30) = (   0.0833333   0.0833333   0.1666667), wk =   0.0277778
        k(   31) = (   0.0833333   0.0833333   0.2500000), wk =   0.0277778
        k(   32) = (   0.0833333   0.0833333   0.3333333), wk =   0.0277778
        k(   33) = (   0.0833333   0.0833333   0.4166667), wk =   0.0277778
        k(   34) = (   0.0833333   0.0833333  -0.5000000), wk =   0.0138889
        k(   35) = (   0.0833333   0.1666667   0.1666667), wk =   0.0277778
        k(   36) = (   0.0833333   0.1666667   0.2500000), wk =   0.0555556
        k(   37) = (   0.0833333   0.1666667   0.3333333), wk =   0.0555556
        k(   38) = (   0.0833333   0.1666667   0.4166667), wk =   0.0555556
        k(   39) = (   0.0833333   0.1666667  -0.5000000), wk =   0.0277778
        k(   40) = (   0.0833333   0.2500000   0.2500000), wk =   0.0277778
        k(   41) = (   0.0833333   0.2500000   0.3333333), wk =   0.0555556
        k(   42) = (   0.0833333   0.2500000   0.4166667), wk =   0.0555556
        k(   43) = (   0.0833333   0.2500000  -0.5000000), wk =   0.0277778
        k(   44) = (   0.0833333   0.3333333   0.3333333), wk =   0.0277778
        k(   45) = (   0.0833333   0.3333333   0.4166667), wk =   0.0555556
        k(   46) = (   0.0833333   0.3333333  -0.5000000), wk =   0.0277778
        k(   47) = (   0.0833333   0.4166667   0.4166667), wk =   0.0277778
        k(   48) = (   0.0833333   0.4166667  -0.5000000), wk =   0.0277778
        k(   49) = (   0.0833333  -0.5000000  -0.5000000), wk =   0.0069444
        k(   50) = (   0.1666667   0.1666667   0.1666667), wk =   0.0092593
        k(   51) = (   0.1666667   0.1666667   0.2500000), wk =   0.0277778
        k(   52) = (   0.1666667   0.1666667   0.3333333), wk =   0.0277778
        k(   53) = (   0.1666667   0.1666667   0.4166667), wk =   0.0277778
        k(   54) = (   0.1666667   0.1666667  -0.5000000), wk =   0.0138889
        k(   55) = (   0.1666667   0.2500000   0.2500000), wk =   0.0277778
        k(   56) = (   0.1666667   0.2500000   0.3333333), wk =   0.0555556
        k(   57) = (   0.1666667   0.2500000   0.4166667), wk =   0.0555556
        k(   58) = (   0.1666667   0.2500000  -0.5000000), wk =   0.0277778
        k(   59) = (   0.1666667   0.3333333   0.3333333), wk =   0.0277778
        k(   60) = (   0.1666667   0.3333333   0.4166667), wk =   0.0555556
        k(   61) = (   0.1666667   0.3333333  -0.5000000), wk =   0.0277778
        k(   62) = (   0.1666667   0.4166667   0.4166667), wk =   0.0277778
        k(   63) = (   0.1666667   0.4166667  -0.5000000), wk =   0.0277778
        k(   64) = (   0.1666667  -0.5000000  -0.5000000), wk =   0.0069444
        k(   65) = (   0.2500000   0.2500000   0.2500000), wk =   0.0092593
        k(   66) = (   0.2500000   0.2500000   0.3333333), wk =   0.0277778
        k(   67) = (   0.2500000   0.2500000   0.4166667), wk =   0.0277778
        k(   68) = (   0.2500000   0.2500000  -0.5000000), wk =   0.0138889
        k(   69) = (   0.2500000   0.3333333   0.3333333), wk =   0.0277778
        k(   70) = (   0.2500000   0.3333333   0.4166667), wk =   0.0555556
        k(   71) = (   0.2500000   0.3333333  -0.5000000), wk =   0.0277778
        k(   72) = (   0.2500000   0.4166667   0.4166667), wk =   0.0277778
        k(   73) = (   0.2500000   0.4166667  -0.5000000), wk =   0.0277778
        k(   74) = (   0.2500000  -0.5000000  -0.5000000), wk =   0.0069444
        k(   75) = (   0.3333333   0.3333333   0.3333333), wk =   0.0092593
        k(   76) = (   0.3333333   0.3333333   0.4166667), wk =   0.0277778
        k(   77) = (   0.3333333   0.3333333  -0.5000000), wk =   0.0138889
        k(   78) = (   0.3333333   0.4166667   0.4166667), wk =   0.0277778
        k(   79) = (   0.3333333   0.4166667  -0.5000000), wk =   0.0277778
        k(   80) = (   0.3333333  -0.5000000  -0.5000000), wk =   0.0069444
        k(   81) = (   0.4166667   0.4166667   0.4166667), wk =   0.0092593
        k(   82) = (   0.4166667   0.4166667  -0.5000000), wk =   0.0138889
        k(   83) = (   0.4166667  -0.5000000  -0.5000000), wk =   0.0069444
        k(   84) = (  -0.5000000  -0.5000000  -0.5000000), wk =   0.0011574

                       cryst. coord.
        k(    1) = (   0.0000000   0.0000000   0.0000000), wk =   0.0011574
        k(    2) = (   0.0000000   0.0000000   0.0833333), wk =   0.0069444
        k(    3) = (   0.0000000   0.0000000   0.1666667), wk =   0.0069444
        k(    4) = (   0.0000000   0.0000000   0.2500000), wk =   0.0069444
        k(    5) = (   0.0000000   0.0000000   0.3333333), wk =   0.0069444
        k(    6) = (   0.0000000   0.0000000   0.4166667), wk =   0.0069444
        k(    7) = (   0.0000000   0.0000000  -0.5000000), wk =   0.0034722
        k(    8) = (   0.0000000   0.0833333   0.0833333), wk =   0.0138889
        k(    9) = (   0.0000000   0.0833333   0.1666667), wk =   0.0277778
        k(   10) = (   0.0000000   0.0833333   0.2500000), wk =   0.0277778
        k(   11) = (   0.0000000   0.0833333   0.3333333), wk =   0.0277778
        k(   12) = (   0.0000000   0.0833333   0.4166667), wk =   0.0277778
        k(   13) = (   0.0000000   0.0833333  -0.5000000), wk =   0.0138889
        k(   14) = (   0.0000000   0.1666667   0.1666667), wk =   0.0138889
        k(   15) = (   0.0000000   0.1666667   0.2500000), wk =   0.0277778
        k(   16) = (   0.0000000   0.1666667   0.3333333), wk =   0.0277778
        k(   17) = (   0.0000000   0.1666667   0.4166667), wk =   0.0277778
        k(   18) = (   0.0000000   0.1666667  -0.5000000), wk =   0.0138889
        k(   19) = (   0.0000000   0.2500000   0.2500000), wk =   0.0138889
        k(   20) = (   0.0000000   0.2500000   0.3333333), wk =   0.0277778
        k(   21) = (   0.0000000   0.2500000   0.4166667), wk =   0.0277778
        k(   22) = (   0.0000000   0.2500000  -0.5000000), wk =   0.0138889
        k(   23) = (   0.0000000   0.3333333   0.3333333), wk =   0.0138889
        k(   24) = (   0.0000000   0.3333333   0.4166667), wk =   0.0277778
        k(   25) = (   0.0000000   0.3333333  -0.5000000), wk =   0.0138889
        k(   26) = (   0.0000000   0.4166667   0.4166667), wk =   0.0138889
        k(   27) = (   0.0000000   0.4166667  -0.5000000), wk =   0.0138889
        k(   28) = (   0.0000000  -0.5000000  -0.5000000), wk =   0.0034722
        k(   29) = (   0.0833333   0.0833333   0.0833333), wk =   0.0092593
        k(   30) = (   0.0833333   0.0833333   0.1666667), wk =   0.0277778
        k(   31) = (   0.0833333   0.0833333   0.2500000), wk =   0.0277778
        k(   32) = (   0.0833333   0.0833333   0.3333333), wk =   0.0277778
        k(   33) = (   0.0833333   0.0833333   0.4166667), wk =   0.0277778
        k(   34) = (   0.0833333   0.0833333  -0.5000000), wk =   0.0138889
        k(   35) = (   0.0833333   0.1666667   0.1666667), wk =   0.0277778
        k(   36) = (   0.0833333   0.1666667   0.2500000), wk =   0.0555556
        k(   37) = (   0.0833333   0.1666667   0.3333333), wk =   0.0555556
        k(   38) = (   0.0833333   0.1666667   0.4166667), wk =   0.0555556
        k(   39) = (   0.0833333   0.1666667  -0.5000000), wk =   0.0277778
        k(   40) = (   0.0833333   0.2500000   0.2500000), wk =   0.0277778
        k(   41) = (   0.0833333   0.2500000   0.3333333), wk =   0.0555556
        k(   42) = (   0.0833333   0.2500000   0.4166667), wk =   0.0555556
        k(   43) = (   0.0833333   0.2500000  -0.5000000), wk =   0.0277778
        k(   44) = (   0.0833333   0.3333333   0.3333333), wk =   0.0277778
        k(   45) = (   0.0833333   0.3333333   0.4166667), wk =   0.0555556
        k(   46) = (   0.0833333   0.3333333  -0.5000000), wk =   0.0277778
        k(   47) = (   0.0833333   0.4166667   0.4166667), wk =   0.0277778
        k(   48) = (   0.0833333   0.4166667  -0.5000000), wk =   0.0277778
        k(   49) = (   0.0833333  -0.5000000  -0.5000000), wk =   0.0069444
        k(   50) = (   0.1666667   0.1666667   0.1666667), wk =   0.0092593
        k(   51) = (   0.1666667   0.1666667   0.2500000), wk =   0.0277778
        k(   52) = (   0.1666667   0.1666667   0.3333333), wk =   0.0277778
        k(   53) = (   0.1666667   0.1666667   0.4166667), wk =   0.0277778
        k(   54) = (   0.1666667   0.1666667  -0.5000000), wk =   0.0138889
        k(   55) = (   0.1666667   0.2500000   0.2500000), wk =   0.0277778
        k(   56) = (   0.1666667   0.2500000   0.3333333), wk =   0.0555556
        k(   57) = (   0.1666667   0.2500000   0.4166667), wk =   0.0555556
        k(   58) = (   0.1666667   0.2500000  -0.5000000), wk =   0.0277778
        k(   59) = (   0.1666667   0.3333333   0.3333333), wk =   0.0277778
        k(   60) = (   0.1666667   0.3333333   0.4166667), wk =   0.0555556
        k(   61) = (   0.1666667   0.3333333  -0.5000000), wk =   0.0277778
        k(   62) = (   0.1666667   0.4166667   0.4166667), wk =   0.0277778
        k(   63) = (   0.1666667   0.4166667  -0.5000000), wk =   0.0277778
        k(   64) = (   0.1666667  -0.5000000  -0.5000000), wk =   0.0069444
        k(   65) = (   0.2500000   0.2500000   0.2500000), wk =   0.0092593
        k(   66) = (   0.2500000   0.2500000   0.3333333), wk =   0.0277778
        k(   67) = (   0.2500000   0.2500000   0.4166667), wk =   0.0277778
        k(   68) = (   0.2500000   0.2500000  -0.5000000), wk =   0.0138889
        k(   69) = (   0.2500000   0.3333333   0.3333333), wk =   0.0277778
        k(   70) = (   0.2500000   0.3333333   0.4166667), wk =   0.0555556
        k(   71) = (   0.2500000   0.3333333  -0.5000000), wk =   0.0277778
        k(   72) = (   0.2500000   0.4166667   0.4166667), wk =   0.0277778
        k(   73) = (   0.2500000   0.4166667  -0.5000000), wk =   0.0277778
        k(   74) = (   0.2500000  -0.5000000  -0.5000000), wk =   0.0069444
        k(   75) = (   0.3333333   0.3333333   0.3333333), wk =   0.0092593
        k(   76) = (   0.3333333   0.3333333   0.4166667), wk =   0.0277778
        k(   77) = (   0.3333333   0.3333333  -0.5000000), wk =   0.0138889
        k(   78) = (   0.3333333   0.4166667   0.4166667), wk =   0.0277778
        k(   79) = (   0.3333333   0.4166667  -0.5000000), wk =   0.0277778
        k(   80) = (   0.3333333  -0.5000000  -0.5000000), wk =   0.0069444
        k(   81) = (   0.4166667   0.4166667   0.4166667), wk =   0.0092593
        k(   82) = (   0.4166667   0.4166667  -0.5000000), wk =   0.0138889
        k(   83) = (   0.4166667  -0.5000000  -0.5000000), wk =   0.0069444
        k(   84) = (  -0.5000000  -0.5000000  -0.5000000), wk =   0.0011574

     Dense  grid:    14771 G-vectors     FFT dimensions: (  32,  32,  32)

     Smooth grid:     5185 G-vectors     FFT dimensions: (  24,  24,  24)

     Dynamical RAM for                 wfc:       0.17 MB

     Dynamical RAM for     wfc (w. buffer):      14.40 MB

     Dynamical RAM for           str. fact:       0.45 MB

     Dynamical RAM for           local pot:       0.00 MB

     Dynamical RAM for          nlocal pot:       0.26 MB

     Dynamical RAM for                qrad:       3.21 MB

     Dynamical RAM for          rho,v,vnew:       1.43 MB

     Dynamical RAM for               rhoin:       0.48 MB

     Dynamical RAM for            rho*nmix:       3.61 MB

     Dynamical RAM for           G-vectors:       0.88 MB

     Dynamical RAM for          h,s,v(r/c):       0.05 MB

     Dynamical RAM for          <psi|beta>:       0.01 MB

     Dynamical RAM for                 psi:       0.34 MB

     Dynamical RAM for                hpsi:       0.34 MB

     Dynamical RAM for                spsi:       0.34 MB

     Dynamical RAM for      wfcinit/wfcrot:       0.35 MB

     Dynamical RAM for           addusdens:      42.15 MB

     Dynamical RAM for          addusforce:      42.26 MB

     Dynamical RAM for         addusstress:      45.30 MB

     Estimated static dynamical RAM per process >      23.03 MB

     Estimated max dynamical RAM per process >      71.94 MB

     Check: negative core charge=   -0.000003

     Initial potential from superposition of free atoms

     starting charge      25.9999, renormalised to      26.0000
     Starting wfcs are   17 randomized atomic wfcs
     Checking if some PAW data can be deallocated... 

     total cpu time spent up to now is        3.0 secs

     Self-consistent Calculation

     iteration #  1     ecut=    50.00 Ry     beta= 0.40
     Davidson diagonalization with overlap

---- Real-time Memory Report at c_bands before calling an iterative solver
            86 MiB given to the printing process from OS
             0 MiB allocation reported by mallinfo(arena+hblkhd)
          5385 MiB available memory on the node where the printing process lives
------------------
     ethr =  1.00E-02,  avg # of iterations =  3.1

     total cpu time spent up to now is        7.2 secs

     total energy              =    -503.03212199 Ry
     estimated scf accuracy    <       0.42909302 Ry

     iteration #  2     ecut=    50.00 Ry     beta= 0.40
     Davidson diagonalization with overlap

---- Real-time Memory Report at c_bands before calling an iterative solver
           109 MiB given to the printing process from OS
             0 MiB allocation reported by mallinfo(arena+hblkhd)
          5369 MiB available memory on the node where the printing process lives
------------------
     ethr =  1.65E-03,  avg # of iterations =  2.0

     total cpu time spent up to now is       13.1 secs

     WARNING: integrated charge=    26.00039316, expected=    26.00000000

     total energy              =    -503.14277122 Ry
     estimated scf accuracy    <       0.04703479 Ry

     iteration #  3     ecut=    50.00 Ry     beta= 0.40
     Davidson diagonalization with overlap

---- Real-time Memory Report at c_bands before calling an iterative solver
           109 MiB given to the printing process from OS
             0 MiB allocation reported by mallinfo(arena+hblkhd)
          5363 MiB available memory on the node where the printing process lives
------------------
     ethr =  1.81E-04,  avg # of iterations =  2.2

     total cpu time spent up to now is       26.4 secs

     WARNING: integrated charge=    26.00078209, expected=    26.00000000

     total energy              =    -503.14978772 Ry
     estimated scf accuracy    <       0.00396334 Ry

     iteration #  4     ecut=    50.00 Ry     beta= 0.40
     Davidson diagonalization with overlap

---- Real-time Memory Report at c_bands before calling an iterative solver
           109 MiB given to the printing process from OS
             0 MiB allocation reported by mallinfo(arena+hblkhd)
          5177 MiB available memory on the node where the printing process lives
------------------
     ethr =  1.52E-05,  avg # of iterations =  1.7

     total cpu time spent up to now is       32.1 secs

     WARNING: integrated charge=    26.00114630, expected=    26.00000000

     total energy              =    -503.14966651 Ry
     estimated scf accuracy    <       0.00084378 Ry

     iteration #  5     ecut=    50.00 Ry     beta= 0.40
     Davidson diagonalization with overlap

---- Real-time Memory Report at c_bands before calling an iterative solver
           109 MiB given to the printing process from OS
             0 MiB allocation reported by mallinfo(arena+hblkhd)
          5167 MiB available memory on the node where the printing process lives
------------------
     ethr =  3.25E-06,  avg # of iterations =  2.2

     total cpu time spent up to now is       42.5 secs

     WARNING: integrated charge=    26.00118879, expected=    26.00000000

     total energy              =    -503.14972486 Ry
     estimated scf accuracy    <       0.00000482 Ry

     iteration #  6     ecut=    50.00 Ry     beta= 0.40
     Davidson diagonalization with overlap

---- Real-time Memory Report at c_bands before calling an iterative solver
           110 MiB given to the printing process from OS
             0 MiB allocation reported by mallinfo(arena+hblkhd)
          4976 MiB available memory on the node where the printing process lives
------------------
     ethr =  1.86E-08,  avg # of iterations =  2.8

     total cpu time spent up to now is       46.2 secs

     WARNING: integrated charge=    26.00119780, expected=    26.00000000

     total energy              =    -503.14972733 Ry
     estimated scf accuracy    <       0.00000596 Ry

     iteration #  7     ecut=    50.00 Ry     beta= 0.40
     Davidson diagonalization with overlap

---- Real-time Memory Report at c_bands before calling an iterative solver
           110 MiB given to the printing process from OS
             0 MiB allocation reported by mallinfo(arena+hblkhd)
          4975 MiB available memory on the node where the printing process lives
------------------
     ethr =  1.86E-08,  avg # of iterations =  2.0

     total cpu time spent up to now is       48.8 secs

     WARNING: integrated charge=    26.00119918, expected=    26.00000000

     total energy              =    -503.14972751 Ry
     estimated scf accuracy    <       0.00000058 Ry

     iteration #  8     ecut=    50.00 Ry     beta= 0.40
     Davidson diagonalization with overlap

---- Real-time Memory Report at c_bands before calling an iterative solver
           110 MiB given to the printing process from OS
             0 MiB allocation reported by mallinfo(arena+hblkhd)
          4974 MiB available memory on the node where the printing process lives
------------------
     ethr =  2.25E-09,  avg # of iterations =  2.1

     total cpu time spent up to now is       51.4 secs

     End of self-consistent calculation

          k = 0.0000 0.0000 0.0000 (   619 PWs)   bands (ev):

  -108.6882 -62.8688 -62.8688 -62.8688  -3.9040   9.2008   9.2008  10.7433
    10.7433  10.7433  14.5481  14.5481  14.5481  16.4936  31.1977  31.1977
    36.2099

     occupation numbers 
     1.0000   1.0000   1.0000   1.0000   1.0000   1.0000   1.0000   1.0000
     1.0000   1.0000   1.0000   1.0000   1.0000   1.0207   0.0000   0.0000
     0.0000

          k = 0.0000 0.0000 0.0833 (   651 PWs)   bands (ev):

  -108.6881 -62.8718 -62.8689 -62.8689  -3.8104   9.2049   9.2146  10.6627
    10.6627  10.7465  13.6916  14.6734  14.6734  17.2724  30.7968  31.2928
    36.0599

     occupation numbers 
     1.0000   1.0000   1.0000   1.0000   1.0000   1.0000   1.0000   1.0000
     1.0000   1.0000   1.0000   1.0000   1.0000   0.0023   0.0000   0.0000
     0.0000

          k = 0.0000 0.0000 0.1667 (   659 PWs)   bands (ev):

  -108.6876 -62.8793 -62.8684 -62.8684  -3.5411   9.1165   9.2529  10.4627
    10.4627  10.7558  12.4340  15.0003  15.0003  18.4446  29.7230  31.5799
    35.6141

     occupation numbers 
     1.0000   1.0000   1.0000   1.0000   1.0000   1.0000   1.0000   1.0000
     1.0000   1.0000   1.0000   1.0000   1.0000   0.0000   0.0000   0.0000
     0.0000

          k = 0.0000 0.0000 0.2500 (   655 PWs)   bands (ev):

  -108.6868 -62.8890 -62.8676 -62.8676  -3.1356   8.6389   9.3054  10.2236
    10.2236  10.7686  11.6530  15.4235  15.4235  19.5529  28.2452  32.0583
    34.9405

     occupation numbers 
     1.0000   1.0000   1.0000   1.0000   1.0000   1.0000   1.0000   1.0000
     1.0000   1.0000   1.0000   1.0000   1.0000   0.0000   0.0000   0.0000
     0.0000

          k = 0.0000 0.0000 0.3333 (   655 PWs)   bands (ev):

  -108.6860 -62.8988 -62.8670 -62.8670  -2.6724   7.7641   9.3584  10.0122
    10.0122  10.7814  11.4999  15.8326  15.8326  20.6132  26.6295  32.7096
    34.2192

     occupation numbers 
     1.0000   1.0000   1.0000   1.0000   1.0000   1.0000   1.0000   1.0000
     1.0000   1.0000   1.0000   1.0000   1.0000   0.0000   0.0000   0.0000
     0.0000

          k = 0.0000 0.0000 0.4167 (   650 PWs)   bands (ev):

  -108.6854 -62.9058 -62.8664 -62.8664  -2.2820   6.9830   9.3975   9.8708
     9.8708  10.7908  11.5861  16.1288  16.1288  21.6570  25.1236  33.6733
    33.6733

     occupation numbers 
     1.0000   1.0000   1.0000   1.0000   1.0000   1.0000   1.0000   1.0000
     1.0000   1.0000   1.0000   1.0000   1.0000   0.0000   0.0000   0.0000
     0.0000

          k = 0.0000 0.0000-0.5000 (   642 PWs)   bands (ev):

  -108.6852 -62.9084 -62.8661 -62.8661  -2.1245   6.6774   9.4119   9.8214
     9.8214  10.7943  11.6406  16.2373  16.2373  22.3149  24.2888  33.4710
    33.4711

     occupation numbers 
     1.0000   1.0000   1.0000   1.0000   1.0000   1.0000   1.0000   1.0000
     1.0000   1.0000   1.0000   1.0001   1.0001   0.0000   0.0000   0.0000
     0.0000

          k = 0.0000 0.0833 0.0833 (   659 PWs)   bands (ev):

  -108.6879 -62.8718 -62.8716 -62.8688  -3.7181   9.2203   9.2256  10.5691
    10.6243  10.7164  13.4880  14.3086  14.7863  17.8912  30.7301  31.0692
    35.7300

     occupation numbers 
     1.0000   1.0000   1.0000   1.0000   1.0000   1.0000   1.0000   1.0000
     1.0000   1.0000   1.0000   1.0000   1.0000   0.0000   0.0000   0.0000
     0.0000

          k = 0.0000 0.0833 0.1667 (   665 PWs)   bands (ev):

  -108.6874 -62.8791 -62.8712 -62.8682  -3.4533   9.1518   9.2669  10.3503
    10.4556  10.7137  12.5146  14.4484  15.0829  18.9559  29.7752  31.1789
    35.3569

     occupation numbers 
     1.0000   1.0000   1.0000   1.0000   1.0000   1.0000   1.0000   1.0000
     1.0000   1.0000   1.0000   1.0000   1.0000   0.0000   0.0000   0.0000
     0.0000

          k = 0.0000 0.0833 0.2500 (   663 PWs)   bands (ev):

  -108.6866 -62.8888 -62.8704 -62.8675  -3.0553   8.6989   9.3239  10.1482
    10.2347  10.7285  11.7390  14.8549  15.4693  19.9986  28.2562  31.5091
    35.0177

     occupation numbers 
     1.0000   1.0000   1.0000   1.0000   1.0000   1.0000   1.0000   1.0000
     1.0000   1.0000   1.0000   1.0000   1.0000   0.0000   0.0000   0.0000
     0.0000

          k = 0.0000 0.0833 0.3333 (   660 PWs)   bands (ev):

  -108.6858 -62.8985 -62.8697 -62.8668  -2.6020   7.8600   9.3839   9.9879
    10.0355  10.7454  11.5277  15.2758  15.8439  21.0028  26.5833  31.8964
    34.3800

     occupation numbers 
     1.0000   1.0000   1.0000   1.0000   1.0000   1.0000   1.0000   1.0000
     1.0000   1.0000   1.0000   1.0000   1.0000   0.0000   0.0000   0.0000
     0.0000

          k = 0.0000 0.0833 0.4167 (   652 PWs)   bands (ev):

  -108.6853 -62.9056 -62.8690 -62.8663  -2.2213   7.1076   9.4326   9.8582
     9.9009  10.7580  11.5858  15.5918  16.1150  22.0284  25.0107  32.1958
    33.8848

     occupation numbers 
     1.0000   1.0000   1.0000   1.0000   1.0000   1.0000   1.0000   1.0000
     1.0000   1.0000   1.0000   1.0000   1.0000   0.0000   0.0000   0.0000
     0.0000

          k = 0.0000 0.0833-0.5000 (   652 PWs)   bands (ev):

  -108.6850 -62.9082 -62.8688 -62.8660  -2.0682   6.8123   9.4528   9.8072
     9.8537  10.7627  11.6335  15.7100  16.2142  22.7939  24.0362  32.2936
    33.6994

     occupation numbers 
     1.0000   1.0000   1.0000   1.0000   1.0000   1.0000   1.0000   1.0000
     1.0000   1.0000   1.0000   1.0000   1.0000   0.0000   0.0000   0.0000
     0.0000

          k = 0.0000 0.1667 0.1667 (   661 PWs)   bands (ev):

  -108.6868 -62.8785 -62.8782 -62.8677  -3.2020   9.1614   9.3046  10.1167
    10.4000  10.6435  12.4807  13.6824  15.3024  19.9037  29.8916  29.9702
    35.4725

     occupation numbers 
     1.0000   1.0000   1.0000   1.0000   1.0000   1.0000   1.0000   1.0000
     1.0000   1.0000   1.0000   1.0000   1.0000   0.0000   0.0000   0.0000
     0.0000

          k = 0.0000 0.1667 0.2500 (   662 PWs)   bands (ev):

  -108.6860 -62.8882 -62.8776 -62.8670  -2.8264   8.8185   9.3732   9.9927
    10.2575  10.6310  11.9319  13.7298  15.5912  20.8289  28.2244  30.1178
    35.2115

     occupation numbers 
     1.0000   1.0000   1.0000   1.0000   1.0000   1.0000   1.0000   1.0000
     1.0000   1.0000   1.0000   1.0000   1.0000   0.0000   0.0000   0.0000
     0.0000

          k = 0.0000 0.1667 0.3333 (   652 PWs)   bands (ev):

  -108.6853 -62.8978 -62.8767 -62.8662  -2.4022   8.1179   9.4515   9.9360
    10.0986  10.6502  11.5999  14.0836  15.8722  21.6772  26.4607  30.3288
    34.8378

     occupation numbers 
     1.0000   1.0000   1.0000   1.0000   1.0000   1.0000   1.0000   1.0000
     1.0000   1.0000   1.0000   1.0000   1.0000   0.0000   0.0000   0.0000
     0.0000

          k = 0.0000 0.1667 0.4167 (   654 PWs)   bands (ev):

  -108.6847 -62.9050 -62.8761 -62.8657  -2.0499   7.4650   9.5258   9.8342
     9.9845  10.6699  11.5797  14.3958  16.0752  22.5253  24.9016  30.4977
    34.5049

     occupation numbers 
     1.0000   1.0000   1.0000   1.0000   1.0000   1.0000   1.0000   1.0000
     1.0000   1.0000   1.0000   1.0000   1.0000   0.0000   0.0000   0.0000
     0.0000

          k = 0.0000 0.1667-0.5000 (   654 PWs)   bands (ev):

  -108.6845 -62.9076 -62.8759 -62.8655  -1.9094   7.2042   9.5663   9.7744
     9.9436  10.6776  11.6078  14.5199  16.1493  23.2842  23.8739  30.5639
    34.3731

     occupation numbers 
     1.0000   1.0000   1.0000   1.0000   1.0000   1.0000   1.0000   1.0000
     1.0000   1.0000   1.0000   1.0000   1.0000   0.0000   0.0000   0.0000
     0.0000

          k = 0.0000 0.2500 0.2500 (   660 PWs)   bands (ev):

  -108.6853 -62.8874 -62.8872 -62.8663  -2.4871   8.7821   9.4470   9.9085
    10.2516  10.5438  12.0013  12.8708  15.7514  21.5464  27.6237  29.0882
    35.4151

     occupation numbers 
     1.0000   1.0000   1.0000   1.0000   1.0000   1.0000   1.0000   1.0000
     1.0000   1.0000   1.0000   1.0000   1.0000   0.0000   0.0000   0.0000
     0.0000

          k = 0.0000 0.2500 0.3333 (   651 PWs)   bands (ev):

  -108.6845 -62.8969 -62.8863 -62.8655  -2.1093   8.4317   9.5430   9.9075
    10.1804  10.5309  11.6837  12.8605  15.9058  21.9870  26.3446  29.0359
    35.5102

     occupation numbers 
     1.0000   1.0000   1.0000   1.0000   1.0000   1.0000   1.0000   1.0000
     1.0000   1.0000   1.0000   1.0000   1.0000   0.0000   0.0000   0.0000
     0.0000

          k = 0.0000 0.2500 0.4167 (   651 PWs)   bands (ev):

  -108.6839 -62.9041 -62.8858 -62.8649  -1.8007   7.9997   9.6393   9.8418
    10.1021  10.5526  11.5509  13.0801  16.0160  22.1335  25.4266  29.1724
    35.1297

     occupation numbers 
     1.0000   1.0000   1.0000   1.0000   1.0000   1.0000   1.0000   1.0000
     1.0000   1.0000   1.0000   1.0000   1.0000   0.0000   0.0000   0.0000
     0.0000

          k = 0.0000 0.2500-0.5000 (   658 PWs)   bands (ev):

  -108.6837 -62.9067 -62.8856 -62.8648  -1.6794   7.8103   9.7253   9.7505
    10.0710  10.5638  11.5491  13.1824  16.0559  22.1348  25.1249  29.2437
    34.9406

     occupation numbers 
     1.0000   1.0000   1.0000   1.0000   1.0000   1.0000   1.0000   1.0000
     1.0000   1.0000   1.0000   1.0000   1.0000   0.0000   0.0000   0.0000
     0.0000

          k = 0.0000 0.3333 0.3333 (   658 PWs)   bands (ev):

  -108.6837 -62.8962 -62.8961 -62.8648  -1.7884   8.6143   9.6580   9.9228
    10.2368  10.4438  11.6633  12.0652  15.9338  21.6867  26.3366  28.4080
    35.3579

     occupation numbers 
     1.0000   1.0000   1.0000   1.0000   1.0000   1.0000   1.0000   1.0000
     1.0000   1.0000   1.0000   1.0000   1.0000   0.0000   0.0000   0.0000
     0.0000

          k = 0.0000 0.3333 0.4167 (   654 PWs)   bands (ev):

  -108.6832 -62.9033 -62.8955 -62.8642  -1.5313   8.5933   9.7557   9.9093
    10.2227  10.4397  11.4584  11.9659  15.9509  21.1365  26.3515  28.3346
    34.8729

     occupation numbers 
     1.0000   1.0000   1.0000   1.0000   1.0000   1.0000   1.0000   1.0000
     1.0000   1.0000   1.0000   1.0000   1.0000   0.0000   0.0000   0.0000
     0.0000

          k = 0.0000 0.3333-0.5000 (   646 PWs)   bands (ev):

  -108.6830 -62.9058 -62.8952 -62.8639  -1.4315   8.5443   9.7786   9.8901
    10.2041  10.4525  11.4323  11.9748  15.9565  20.8785  26.3455  28.3934
    34.6263

     occupation numbers 
     1.0000   1.0000   1.0000   1.0000   1.0000   1.0000   1.0000   1.0000
     1.0000   1.0000   1.0000   1.0000   1.0000   0.0000   0.0000   0.0000
     0.0000

          k = 0.0000 0.4167 0.4167 (   652 PWs)   bands (ev):

  -108.6826 -62.9026 -62.9026 -62.8635  -1.3184   9.0556   9.9174   9.9565
    10.3027  10.3705  11.1600  11.4107  15.8993  20.2482  27.1228  27.9374
    34.2585

     occupation numbers 
     1.0000   1.0000   1.0000   1.0000   1.0000   1.0000   1.0000   1.0000
     1.0000   1.0000   1.0000   1.0000   1.0000   0.0000   0.0000   0.0000
     0.0000

          k = 0.0000 0.4167-0.5000 (   652 PWs)   bands (ev):

  -108.6824 -62.9052 -62.9024 -62.8634  -1.2367   9.2390   9.9092  10.0200
    10.3055  10.3726  11.0480  11.2446  15.8795  19.8987  27.3448  27.9206
    33.9404

     occupation numbers 
     1.0000   1.0000   1.0000   1.0000   1.0000   1.0000   1.0000   1.0000
     1.0000   1.0000   1.0000   1.0000   1.0000   0.0000   0.0000   0.0000
     0.0000

          k = 0.0000-0.5000-0.5000 (   656 PWs)   bands (ev):

  -108.6822 -62.9050 -62.9050 -62.8633  -1.1622   9.5633  10.0790  10.0790
    10.3436  10.3436  10.5968  11.1121  15.8503  19.5257  27.7677  27.7677
    33.5785

     occupation numbers 
     1.0000   1.0000   1.0000   1.0000   1.0000   1.0000   1.0000   1.0000
     1.0000   1.0000   1.0000   1.0000   1.0000   0.0000   0.0000   0.0000
     0.0000

          k = 0.0833 0.0833 0.0833 (   661 PWs)   bands (ev):

  -108.6877 -62.8717 -62.8714 -62.8714  -3.6273   9.2403   9.2403  10.4853
    10.6312  10.6312  13.3262  14.4397  14.4397  18.4170  30.7887  30.7887
    34.8462

     occupation numbers 
     1.0000   1.0000   1.0000   1.0000   1.0000   1.0000   1.0000   1.0000
     1.0000   1.0000   1.0000   1.0000   1.0000   0.0000   0.0000   0.0000
     0.0000

          k = 0.0833 0.0833 0.1667 (   665 PWs)   bands (ev):

  -108.6872 -62.8788 -62.8710 -62.8709  -3.3668   9.1949   9.2814  10.2941
    10.4201  10.6496  12.5518  14.3807  14.7804  19.3884  29.8162  30.9519
    34.3420

     occupation numbers 
     1.0000   1.0000   1.0000   1.0000   1.0000   1.0000   1.0000   1.0000
     1.0000   1.0000   1.0000   1.0000   1.0000   0.0000   0.0000   0.0000
     0.0000

          k = 0.0833 0.0833 0.2500 (   664 PWs)   bands (ev):

  -108.6864 -62.8886 -62.8703 -62.8702  -2.9759   8.7657   9.3399  10.1614
    10.1676  10.6750  11.8089  14.6669  15.2203  20.3607  28.2858  31.1739
    34.1733

     occupation numbers 
     1.0000   1.0000   1.0000   1.0000   1.0000   1.0000   1.0000   1.0000
     1.0000   1.0000   1.0000   1.0000   1.0000   0.0000   0.0000   0.0000
     0.0000

          k = 0.0833 0.0833 0.3333 (   652 PWs)   bands (ev):

  -108.6856 -62.8982 -62.8694 -62.8693  -2.5318   7.9568   9.4048   9.9396
    10.0845  10.7014  11.5591  15.0056  15.6464  21.3022  26.5833  31.3614
    34.0560

     occupation numbers 
     1.0000   1.0000   1.0000   1.0000   1.0000   1.0000   1.0000   1.0000
     1.0000   1.0000   1.0000   1.0000   1.0000   0.0000   0.0000   0.0000
     0.0000

          k = 0.0833 0.0833 0.4167 (   648 PWs)   bands (ev):

  -108.6850 -62.9053 -62.8688 -62.8687  -2.1602   7.2290   9.4643   9.7751
    10.0029  10.7204  11.5935  15.2701  15.9562  22.2949  24.9753  31.4225
    33.9370

     occupation numbers 
     1.0000   1.0000   1.0000   1.0000   1.0000   1.0000   1.0000   1.0000
     1.0000   1.0000   1.0000   1.0000   1.0000   0.0000   0.0000   0.0000
     0.0000

          k = 0.0833 0.0833-0.5000 (   658 PWs)   bands (ev):

  -108.6849 -62.9081 -62.8687 -62.8687  -2.0112   6.9429   9.4950   9.7083
     9.9679  10.7272  11.6357  15.3707  16.0700  23.1987  23.8373  31.4134
    33.8838

     occupation numbers 
     1.0000   1.0000   1.0000   1.0000   1.0000   1.0000   1.0000   1.0000
     1.0000   1.0000   1.0000   1.0000   1.0000   0.0000   0.0000   0.0000
     0.0000

          k = 0.0833 0.1667 0.1667 (   666 PWs)   bands (ev):

  -108.6866 -62.8783 -62.8780 -62.8704  -3.1191   9.2301   9.3159  10.1093
    10.3553  10.5490  12.4376  13.8330  14.9131  20.2267  29.8570  30.0164
    33.8187

     occupation numbers 
     1.0000   1.0000   1.0000   1.0000   1.0000   1.0000   1.0000   1.0000
     1.0000   1.0000   1.0000   1.0000   1.0000   0.0000   0.0000   0.0000
     0.0000

          k = 0.0833 0.1667 0.2500 (   662 PWs)   bands (ev):

  -108.6858 -62.8879 -62.8773 -62.8696  -2.7494   8.9049   9.3786  10.0180
    10.2011  10.5523  11.9391  13.7877  15.2531  21.0558  28.3080  30.0050
    33.9308

     occupation numbers 
     1.0000   1.0000   1.0000   1.0000   1.0000   1.0000   1.0000   1.0000
     1.0000   1.0000   1.0000   1.0000   1.0000   0.0000   0.0000   0.0000
     0.0000

          k = 0.0833 0.1667 0.3333 (   653 PWs)   bands (ev):

  -108.6851 -62.8976 -62.8765 -62.8688  -2.3328   8.2159   9.4497   9.8865
    10.1631  10.5915  11.6266  14.0238  15.6037  21.8189  26.5664  30.0076
    34.1837

     occupation numbers 
     1.0000   1.0000   1.0000   1.0000   1.0000   1.0000   1.0000   1.0000
     1.0000   1.0000   1.0000   1.0000   1.0000   0.0000   0.0000   0.0000
     0.0000

          k = 0.0833 0.1667 0.4167 (   646 PWs)   bands (ev):

  -108.6845 -62.9047 -62.8758 -62.8682  -1.9876   7.5752   9.5230   9.7247
    10.1394  10.6241  11.6059  14.2496  15.8666  22.5891  25.0376  29.9354
    34.3489

     occupation numbers 
     1.0000   1.0000   1.0000   1.0000   1.0000   1.0000   1.0000   1.0000
     1.0000   1.0000   1.0000   1.0000   1.0000   0.0000   0.0000   0.0000
     0.0000

          k = 0.0833 0.1667-0.5000 (   650 PWs)   bands (ev):

  -108.6843 -62.9073 -62.8756 -62.8680  -1.8503   7.3196   9.6030   9.6117
    10.1203  10.6361  11.6352  14.3405  15.9648  23.2084  24.1330  29.8884
    34.4081

     occupation numbers 
     1.0000   1.0000   1.0000   1.0000   1.0000   1.0000   1.0000   1.0000
     1.0000   1.0000   1.0000   1.0000   1.0000   0.0000   0.0000   0.0000
     0.0000

          k = 0.0833 0.2500 0.2500 (   651 PWs)   bands (ev):

  -108.6850 -62.8871 -62.8869 -62.8687  -2.4140   8.8836   9.4266   9.9430
    10.2170  10.4610  11.9102  13.0540  15.4480  21.6564  27.7920  28.9256
    34.2454

     occupation numbers 
     1.0000   1.0000   1.0000   1.0000   1.0000   1.0000   1.0000   1.0000
     1.0000   1.0000   1.0000   1.0000   1.0000   0.0000   0.0000   0.0000
     0.0000

          k = 0.0833 0.2500 0.3333 (   651 PWs)   bands (ev):

  -108.6843 -62.8967 -62.8862 -62.8680  -2.0409   8.5239   9.4845   9.8885
    10.2504  10.4767  11.6609  12.9415  15.6611  22.0245  26.4880  28.7579
    34.6930

     occupation numbers 
     1.0000   1.0000   1.0000   1.0000   1.0000   1.0000   1.0000   1.0000
     1.0000   1.0000   1.0000   1.0000   1.0000   0.0000   0.0000   0.0000
     0.0000

          k = 0.0833 0.2500 0.4167 (   651 PWs)   bands (ev):

  -108.6837 -62.9039 -62.8856 -62.8675  -1.7365   8.0840   9.5160   9.7998
    10.2840  10.5170  11.5907  13.0448  15.8260  22.1570  25.5376  28.6989
    35.0383

     occupation numbers 
     1.0000   1.0000   1.0000   1.0000   1.0000   1.0000   1.0000   1.0000
     1.0000   1.0000   1.0000   1.0000   1.0000   0.0000   0.0000   0.0000
     0.0000

          k = 0.0833 0.2500-0.5000 (   646 PWs)   bands (ev):

  -108.6835 -62.9064 -62.8853 -62.8672  -1.6169   7.8929   9.5204   9.7688
    10.2821  10.5341  11.6120  13.1013  15.8890  22.1662  25.2173  28.6690
    35.2697

     occupation numbers 
     1.0000   1.0000   1.0000   1.0000   1.0000   1.0000   1.0000   1.0000
     1.0000   1.0000   1.0000   1.0000   1.0000   0.0000   0.0000   0.0000
     0.0000

          k = 0.0833 0.3333 0.3333 (   655 PWs)   bands (ev):

  -108.6835 -62.8960 -62.8959 -62.8673  -1.7210   8.6794   9.5213   9.8967
    10.3329  10.4622  11.5487  12.2783  15.7333  21.7230  26.3541  28.1227
    35.1880

     occupation numbers 
     1.0000   1.0000   1.0000   1.0000   1.0000   1.0000   1.0000   1.0000
     1.0000   1.0000   1.0000   1.0000   1.0000   0.0000   0.0000   0.0000
     0.0000

          k = 0.0833 0.3333 0.4167 (   651 PWs)   bands (ev):

  -108.6830 -62.9030 -62.8953 -62.8667  -1.4645   8.6257   9.5123   9.8766
    10.4085  10.5057  11.4674  12.0675  15.7925  21.2032  26.2689  27.9368
    35.0400

     occupation numbers 
     1.0000   1.0000   1.0000   1.0000   1.0000   1.0000   1.0000   1.0000
     1.0000   1.0000   1.0000   1.0000   1.0000   0.0000   0.0000   0.0000
     0.0000

          k = 0.0833 0.3333-0.5000 (   652 PWs)   bands (ev):

  -108.6828 -62.9056 -62.8950 -62.8665  -1.3650   8.5640   9.4823   9.8816
    10.4231  10.5172  11.5343  11.9909  15.8163  20.9566  26.2478  27.9065
    34.9025

     occupation numbers 
     1.0000   1.0000   1.0000   1.0000   1.0000   1.0000   1.0000   1.0000
     1.0000   1.0000   1.0000   1.0000   1.0000   0.0000   0.0000   0.0000
     0.0000

          k = 0.0833 0.4167 0.4167 (   652 PWs)   bands (ev):

  -108.6824 -62.9024 -62.9023 -62.8662  -1.2494   9.0176   9.5456   9.8378
    10.4814  10.6571  11.1787  11.6022  15.7684  20.3306  26.8573  27.5695
    34.5209

     occupation numbers 
     1.0000   1.0000   1.0000   1.0000   1.0000   1.0000   1.0000   1.0000
     1.0000   1.0000   1.0000   1.0000   1.0000   0.0000   0.0000   0.0000
     0.0000

          k = 0.0833 0.4167-0.5000 (   654 PWs)   bands (ev):

  -108.6822 -62.9050 -62.9021 -62.8660  -1.1667   9.1753   9.5049   9.8311
    10.4844  10.7094  11.2316  11.3590  15.7599  19.9820  27.0500  27.4999
    34.2707

     occupation numbers 
     1.0000   1.0000   1.0000   1.0000   1.0000   1.0000   1.0000   1.0000
     1.0000   1.0000   1.0000   1.0000   1.0000   0.0000   0.0000   0.0000
     0.0000

          k = 0.0833-0.5000-0.5000 (   648 PWs)   bands (ev):

  -108.6820 -62.9047 -62.9047 -62.8657  -1.0908   9.5396   9.5396   9.6614
    10.4517  10.9921  10.9921  11.1138  15.7383  19.6055  27.3714  27.3714
    33.9658

     occupation numbers 
     1.0000   1.0000   1.0000   1.0000   1.0000   1.0000   1.0000   1.0000
     1.0000   1.0000   1.0000   1.0000   1.0000   0.0000   0.0000   0.0000
     0.0000

          k = 0.1667 0.1667 0.1667 (   669 PWs)   bands (ev):

  -108.6861 -62.8779 -62.8775 -62.8775  -2.8823   9.3455   9.3455  10.0321
    10.3247  10.3247  12.2407  14.2192  14.2192  20.8705  29.7280  29.7280
    32.6851

     occupation numbers 
     1.0000   1.0000   1.0000   1.0000   1.0000   1.0000   1.0000   1.0000
     1.0000   1.0000   1.0000   1.0000   1.0000   0.0000   0.0000   0.0000
     0.0000

          k = 0.1667 0.1667 0.2500 (   665 PWs)   bands (ev):

  -108.6853 -62.8874 -62.8769 -62.8767  -2.5302   9.1044   9.3809  10.0747
    10.0867  10.3823  11.8685  13.8234  14.7145  21.4931  28.4176  29.4544
    32.7955

     occupation numbers 
     1.0000   1.0000   1.0000   1.0000   1.0000   1.0000   1.0000   1.0000
     1.0000   1.0000   1.0000   1.0000   1.0000   0.0000   0.0000   0.0000
     0.0000

          k = 0.1667 0.1667 0.3333 (   651 PWs)   bands (ev):

  -108.6845 -62.8969 -62.8760 -62.8758  -2.1357   8.4731   9.4028   9.8763
    10.2709  10.4607  11.6287  13.7256  15.1980  22.0440  26.7721  29.0476
    33.5269

     occupation numbers 
     1.0000   1.0000   1.0000   1.0000   1.0000   1.0000   1.0000   1.0000
     1.0000   1.0000   1.0000   1.0000   1.0000   0.0000   0.0000   0.0000
     0.0000

          k = 0.1667 0.1667 0.4167 (   649 PWs)   bands (ev):

  -108.6839 -62.9041 -62.8754 -62.8752  -1.8114   7.8804   9.3983   9.7683
    10.3380  10.5198  11.6490  13.7288  15.5552  22.5750  25.3799  28.6601
    34.2593

     occupation numbers 
     1.0000   1.0000   1.0000   1.0000   1.0000   1.0000   1.0000   1.0000
     1.0000   1.0000   1.0000   1.0000   1.0000   0.0000   0.0000   0.0000
     0.0000

          k = 0.1667 0.1667-0.5000 (   642 PWs)   bands (ev):

  -108.6837 -62.9066 -62.8750 -62.8750  -1.6831   7.6435   9.3892   9.7392
    10.3404  10.5418  11.7013  13.7385  15.6881  22.9053  24.7276  28.4997
    34.5767

     occupation numbers 
     1.0000   1.0000   1.0000   1.0000   1.0000   1.0000   1.0000   1.0000
     1.0000   1.0000   1.0000   1.0000   1.0000   0.0000   0.0000   0.0000
     0.0000

          k = 0.1667 0.2500 0.2500 (   652 PWs)   bands (ev):

  -108.6845 -62.8865 -62.8863 -62.8759  -2.2062   9.1307   9.3560  10.0337
    10.1516  10.3016  11.6348  13.5137  14.7756  21.8549  28.0496  28.4384
    32.7365

     occupation numbers 
     1.0000   1.0000   1.0000   1.0000   1.0000   1.0000   1.0000   1.0000
     1.0000   1.0000   1.0000   1.0000   1.0000   0.0000   0.0000   0.0000
     0.0000

          k = 0.1667 0.2500 0.3333 (   653 PWs)   bands (ev):

  -108.6837 -62.8961 -62.8856 -62.8751  -1.8467   8.7476   9.3053   9.9505
    10.3556  10.4070  11.4646  13.2115  15.1248  22.0761  26.7266  27.9475
    33.4673

     occupation numbers 
     1.0000   1.0000   1.0000   1.0000   1.0000   1.0000   1.0000   1.0000
     1.0000   1.0000   1.0000   1.0000   1.0000   0.0000   0.0000   0.0000
     0.0000

          k = 0.1667 0.2500 0.4167 (   649 PWs)   bands (ev):

  -108.6832 -62.9032 -62.8850 -62.8745  -1.5544   8.2948   9.2372   9.9120
    10.4506  10.4898  11.6194  12.9910  15.4317  22.1829  25.7246  27.4965
    34.4031

     occupation numbers 
     1.0000   1.0000   1.0000   1.0000   1.0000   1.0000   1.0000   1.0000
     1.0000   1.0000   1.0000   1.0000   1.0000   0.0000   0.0000   0.0000
     0.0000

          k = 0.1667 0.2500-0.5000 (   652 PWs)   bands (ev):

  -108.6830 -62.9059 -62.8848 -62.8743  -1.4397   8.1024   9.2076   9.9048
    10.4832  10.4867  11.7773  12.8800  15.5524  22.2111  25.3657  27.3057
    34.9083

     occupation numbers 
     1.0000   1.0000   1.0000   1.0000   1.0000   1.0000   1.0000   1.0000
     1.0000   1.0000   1.0000   1.0000   1.0000   0.0000   0.0000   0.0000
     0.0000

          k = 0.1667 0.3333 0.3333 (   659 PWs)   bands (ev):

  -108.6830 -62.8954 -62.8952 -62.8744  -1.5294   8.7989   9.2289   9.9517
    10.4941  10.5090  11.2459  12.8139  15.2600  21.8098  26.2260  27.3268
    33.9257

     occupation numbers 
     1.0000   1.0000   1.0000   1.0000   1.0000   1.0000   1.0000   1.0000
     1.0000   1.0000   1.0000   1.0000   1.0000   0.0000   0.0000   0.0000
     0.0000

          k = 0.1667 0.3333 0.4167 (   648 PWs)   bands (ev):

  -108.6824 -62.9023 -62.8946 -62.8737  -1.2748   8.6569   9.1278   9.9615
    10.4943  10.5945  11.4808  12.4813  15.4265  21.3874  25.9114  26.8807
    34.7129

     occupation numbers 
     1.0000   1.0000   1.0000   1.0000   1.0000   1.0000   1.0000   1.0000
     1.0000   1.0000   1.0000   1.0000   1.0000   0.0000   0.0000   0.0000
     0.0000

          k = 0.1667 0.3333-0.5000 (   648 PWs)   bands (ev):

  -108.6822 -62.9050 -62.8944 -62.8734  -1.1759   8.5657   9.0784   9.9802
    10.4398  10.6266  11.8375  12.1907  15.5011  21.1784  25.8806  26.6500
    35.3827

     occupation numbers 
     1.0000   1.0000   1.0000   1.0000   1.0000   1.0000   1.0000   1.0000
     1.0000   1.0000   1.0000   1.0000   1.0000   0.0000   0.0000   0.0000
     0.0000

          k = 0.1667 0.4167 0.4167 (   644 PWs)   bands (ev):

  -108.6819 -62.9017 -62.9017 -62.8730  -1.0527   8.8313   9.0678   9.9409
    10.3058  10.8512  11.5500  12.1976  15.4603  20.5760  26.0526  26.5786
    35.0632

     occupation numbers 
     1.0000   1.0000   1.0000   1.0000   1.0000   1.0000   1.0000   1.0000
     1.0000   1.0000   1.0000   1.0000   1.0000   0.0000   0.0000   0.0000
     0.0000

          k = 0.1667 0.4167-0.5000 (   648 PWs)   bands (ev):

  -108.6817 -62.9044 -62.9015 -62.8729  -0.9671   8.8888   9.0138   9.9540
    10.1842  10.9435  11.8594  11.9049  15.4806  20.2347  26.2051  26.3835
    35.2111

     occupation numbers 
     1.0000   1.0000   1.0000   1.0000   1.0000   1.0000   1.0000   1.0000
     1.0000   1.0000   1.0000   1.0000   1.0000   0.0000   0.0000   0.0000
     0.0000

          k = 0.1667-0.5000-0.5000 (   644 PWs)   bands (ev):

  -108.6815 -62.9041 -62.9041 -62.8726  -0.8867   8.9998   8.9998   9.9348
    10.0334  11.1184  11.8528  11.8528  15.4747  19.8513  26.3151  26.3151
    35.0154

     occupation numbers 
     1.0000   1.0000   1.0000   1.0000   1.0000   1.0000   1.0000   1.0000
     1.0000   1.0000   1.0000   1.0000   1.0000   0.0000   0.0000   0.0000
     0.0000

          k = 0.2500 0.2500 0.2500 (   654 PWs)   bands (ev):

  -108.6837 -62.8858 -62.8855 -62.8855  -1.8998   9.2301   9.2301  10.1851
    10.1851  10.2385  11.2454  14.1006  14.1006  21.9902  27.6803  27.6803
    32.2176

     occupation numbers 
     1.0000   1.0000   1.0000   1.0000   1.0000   1.0000   1.0000   1.0000
     1.0000   1.0000   1.0000   1.0000   1.0000   0.0000   0.0000   0.0000
     0.0000

          k = 0.2500 0.2500 0.3333 (   648 PWs)   bands (ev):

  -108.6830 -62.8952 -62.8849 -62.8846  -1.5613   8.9159   9.0857  10.1350
    10.3369  10.5338  11.0909  13.5417  14.6852  22.0487  26.6437  26.8284
    32.8712

     occupation numbers 
     1.0000   1.0000   1.0000   1.0000   1.0000   1.0000   1.0000   1.0000
     1.0000   1.0000   1.0000   1.0000   1.0000   0.0000   0.0000   0.0000
     0.0000

          k = 0.2500 0.2500 0.4167 (   648 PWs)   bands (ev):

  -108.6824 -62.9023 -62.8842 -62.8840  -1.2875   8.5100   8.9766  10.1217
    10.4306  10.4943  11.5918  13.0329  15.1313  22.0715  25.7249  26.1495
    33.9053

     occupation numbers 
     1.0000   1.0000   1.0000   1.0000   1.0000   1.0000   1.0000   1.0000
     1.0000   1.0000   1.0000   1.0000   1.0000   0.0000   0.0000   0.0000
     0.0000

          k = 0.2500 0.2500-0.5000 (   652 PWs)   bands (ev):

  -108.6822 -62.9050 -62.8841 -62.8838  -1.1805   8.3351   8.9367  10.1200
    10.4155  10.4995  12.0145  12.6745  15.3015  22.0799  25.3728  25.8888
    34.4857

     occupation numbers 
     1.0000   1.0000   1.0000   1.0000   1.0000   1.0000   1.0000   1.0000
     1.0000   1.0000   1.0000   1.0000   1.0000   0.0000   0.0000   0.0000
     0.0000

          k = 0.2500 0.3333 0.3333 (   649 PWs)   bands (ev):

  -108.6822 -62.8945 -62.8943 -62.8839  -1.2476   8.8129   8.9267  10.2007
    10.4039  10.5246  11.1644  13.5090  14.7299  21.8862  25.7266  26.2060
    33.0411

     occupation numbers 
     1.0000   1.0000   1.0000   1.0000   1.0000   1.0000   1.0000   1.0000
     1.0000   1.0000   1.0000   1.0000   1.0000   0.0000   0.0000   0.0000
     0.0000

          k = 0.2500 0.3333 0.4167 (   649 PWs)   bands (ev):

  -108.6817 -62.9015 -62.8938 -62.8833  -0.9952   8.6016   8.7857  10.0960
    10.2690  10.6724  11.7739  13.1027  15.0498  21.6251  25.1448  25.5805
    33.6148

     occupation numbers 
     1.0000   1.0000   1.0000   1.0000   1.0000   1.0000   1.0000   1.0000
     1.0000   1.0000   1.0000   1.0000   1.0000   0.0000   0.0000   0.0000
     0.0000

          k = 0.2500 0.3333-0.5000 (   652 PWs)   bands (ev):

  -108.6815 -62.9042 -62.8936 -62.8831  -0.8971   8.4906   8.7334  10.0225
    10.2646  10.7205  12.3135  12.6609  15.2015  21.4843  25.0828  25.2062
    33.9729

     occupation numbers 
     1.0000   1.0000   1.0000   1.0000   1.0000   1.0000   1.0000   1.0000
     1.0000   1.0000   1.0000   1.0000   1.0000   0.0000   0.0000   0.0000
     0.0000

          k = 0.2500 0.4167 0.4167 (   651 PWs)   bands (ev):

  -108.6811 -62.9009 -62.9008 -62.8827  -0.7614   8.5744   8.6701   9.7299
    10.2989  10.9203  12.2031  13.0150  15.1271  20.9718  24.8510  25.2391
    33.5058

     occupation numbers 
     1.0000   1.0000   1.0000   1.0000   1.0000   1.0000   1.0000   1.0000
     1.0000   1.0000   1.0000   1.0000   1.0000   0.0000   0.0000   0.0000
     0.0000

          k = 0.2500 0.4167-0.5000 (   650 PWs)   bands (ev):

  -108.6809 -62.9035 -62.9007 -62.8825  -0.6708   8.5570   8.6116   9.5928
    10.3087  11.0089  12.6317  12.7450  15.1896  20.6577  24.9018  24.9959
    33.4885

     occupation numbers 
     1.0000   1.0000   1.0000   1.0000   1.0000   1.0000   1.0000   1.0000
     1.0000   1.0000   1.0000   1.0000   1.0000   0.0000   0.0000   0.0000
     0.0000

          k = 0.2500-0.5000-0.5000 (   644 PWs)   bands (ev):

  -108.6807 -62.9032 -62.9032 -62.8822  -0.5832   8.5728   8.5728   9.4142
    10.3208  11.1247  12.7879  12.7879  15.1955  20.2774  24.9027  24.9027
    33.2833

     occupation numbers 
     1.0000   1.0000   1.0000   1.0000   1.0000   1.0000   1.0000   1.0000
     1.0000   1.0000   1.0000   1.0000   1.0000   0.0000   0.0000   0.0000
     0.0000

          k = 0.3333 0.3333 0.3333 (   639 PWs)   bands (ev):

  -108.6815 -62.8936 -62.8934 -62.8934  -0.9370   8.6834   8.6834   9.8941
    10.5504  10.5504  11.6238  14.2253  14.2253  21.8674  25.0382  25.0382
    32.6368

     occupation numbers 
     1.0000   1.0000   1.0000   1.0000   1.0000   1.0000   1.0000   1.0000
     1.0000   1.0000   1.0000   1.0000   1.0000   0.0000   0.0000   0.0000
     0.0000

          k = 0.3333 0.3333 0.4167 (   649 PWs)   bands (ev):

  -108.6809 -62.9006 -62.8930 -62.8929  -0.6866   8.4844   8.5285   9.5391
    10.5679  10.7674  12.3095  13.6980  14.7979  21.7298  24.1340  24.5475
    32.4814

     occupation numbers 
     1.0000   1.0000   1.0000   1.0000   1.0000   1.0000   1.0000   1.0000
     1.0000   1.0000   1.0000   1.0000   1.0000   0.0000   0.0000   0.0000
     0.0000

          k = 0.3333 0.3333-0.5000 (   652 PWs)   bands (ev):

  -108.6807 -62.9033 -62.8928 -62.8926  -0.5891   8.3813   8.4756   9.4269
    10.5742  10.8400  12.9045  13.1939  15.0248  21.6378  23.7867  24.3926
    32.4389

     occupation numbers 
     1.0000   1.0000   1.0000   1.0000   1.0000   1.0000   1.0000   1.0000
     1.0000   1.0000   1.0000   1.0000   1.0000   0.0000   0.0000   0.0000
     0.0000

          k = 0.3333 0.4167 0.4167 (   652 PWs)   bands (ev):

  -108.6804 -62.9001 -62.8999 -62.8924  -0.4374   8.3526   8.3771   9.0904
    10.6795  10.9518  12.9472  13.8719  14.8442  21.4534  23.5969  23.8700
    31.5679

     occupation numbers 
     1.0000   1.0000   1.0000   1.0000   1.0000   1.0000   1.0000   1.0000
     1.0000   1.0000   1.0000   1.0000   1.0000   0.0000   0.0000   0.0000
     0.0000

          k = 0.3333 0.4167-0.5000 (   654 PWs)   bands (ev):

  -108.6802 -62.9026 -62.8998 -62.8922  -0.3401   8.2956   8.3173   8.9334
    10.6980  11.0380  13.4707  13.5872  14.9778  21.2161  23.4135  23.7234
    31.2082

     occupation numbers 
     1.0000   1.0000   1.0000   1.0000   1.0000   1.0000   1.0000   1.0000
     1.0000   1.0000   1.0000   1.0000   1.0000   0.0000   0.0000   0.0000
     0.0000

          k = 0.3333-0.5000-0.5000 (   652 PWs)   bands (ev):

  -108.6800 -62.9023 -62.9023 -62.8920  -0.2429   8.2642   8.2642   8.7430
    10.7216  11.1311  13.7248  13.7248  14.9852  20.8779  23.4625  23.4625
    30.7257

     occupation numbers 
     1.0000   1.0000   1.0000   1.0000   1.0000   1.0000   1.0000   1.0000
     1.0000   1.0000   1.0000   1.0000   1.0000   0.0000   0.0000   0.0000
     0.0000

          k = 0.4167 0.4167 0.4167 (   654 PWs)   bands (ev):

  -108.6798 -62.8994 -62.8994 -62.8994  -0.1732   8.1981   8.1981   8.5925
    10.9676  10.9676  13.6661  14.5807  14.5807  21.7472  22.7995  22.7995
    30.0736

     occupation numbers 
     1.0000   1.0000   1.0000   1.0000   1.0000   1.0000   1.0000   1.0000
     1.0000   1.0000   1.0000   1.0000   1.0000   0.0000   0.0000   0.0000
     0.0000

          k = 0.4167 0.4167-0.5000 (   652 PWs)   bands (ev):

  -108.6796 -62.9020 -62.8992 -62.8991  -0.0695   8.1327   8.1380   8.4143
    10.9727  11.0734  14.1935  14.2544  14.8720  21.6671  22.3789  22.7200
    29.4901

     occupation numbers 
     1.0000   1.0000   1.0000   1.0000   1.0000   1.0000   1.0000   1.0000
     1.0000   1.0000   1.0000   1.0000   1.0000   0.0000   0.0000   0.0000
     0.0000

          k = 0.4167-0.5000-0.5000 (   648 PWs)   bands (ev):

  -108.6794 -62.9017 -62.9017 -62.8989   0.0371   8.0775   8.0775   8.2164
    11.0246  11.1358  14.5009  14.5009  14.8635  21.5385  22.3266  22.3266
    28.8128

     occupation numbers 
     1.0000   1.0000   1.0000   1.0000   1.0000   1.0000   1.0000   1.0000
     1.0000   1.0000   1.0000   1.0000   1.0000   0.0000   0.0000   0.0000
     0.0000

          k =-0.5000-0.5000-0.5000 (   672 PWs)   bands (ev):

  -108.6793 -62.9017 -62.9017 -62.9017   0.1477   8.0150   8.0150   8.0150
    11.1374  11.1374  14.8244  14.8244  14.8244  21.8743  21.8743  21.8743
    28.0456

     occupation numbers 
     1.0000   1.0000   1.0000   1.0000   1.0000   1.0000   1.0000   1.0000
     1.0000   1.0000   1.0000   1.0000   1.0000   0.0000   0.0000   0.0000
     0.0000

     the Fermi energy is    16.9493 ev

     WARNING: integrated charge=    26.00119892, expected=    26.00000000

!    total energy              =    -503.14972761 Ry
     estimated scf accuracy    <          1.6E-09 Ry
     smearing contrib. (-TS)   =       0.00000056 Ry
     internal energy E=F+TS    =    -503.14972817 Ry

     The total energy is F=E-TS. E is the sum of the following terms:
     one-electron contribution =    -323.57097998 Ry
     hartree contribution      =     178.84759597 Ry
     xc contribution           =     -49.94172012 Ry
     ewald contribution        =    -298.96036544 Ry
     one-center paw contrib.   =      -9.52425860 Ry
      -> PAW hartree energy AE =      26.86839400 Ry
      -> PAW hartree energy PS =     -26.74635279 Ry
      -> PAW xc energy AE      =     -16.79423223 Ry
      -> PAW xc energy PS      =       7.14793242 Ry
      -> total E_H with PAW    =     178.96963719 Ry
      -> total E_XC with PAW   =     -59.58801993 Ry

     convergence has been achieved in   8 iterations

     Forces acting on atoms (cartesian axes, Ry/au):

     atom    1 type  2   force =     0.00000000    0.00000000    0.00000000
     atom    2 type  1   force =     0.00000000    0.00000000    0.00000000
     The non-local contrib.  to forces
     atom    1 type  2   force =     0.00000000    0.00000000    0.00000000
     atom    2 type  1   force =     0.00000000    0.00000000    0.00000000
     The ionic contribution  to forces
     atom    1 type  2   force =    -0.00000000   -0.00000000   -0.00000000
     atom    2 type  1   force =     0.00000000    0.00000000    0.00000000
     The local contribution  to forces
     atom    1 type  2   force =    -0.00000000   -0.00000000   -0.00000000
     atom    2 type  1   force =     0.00000000    0.00000000    0.00000000
     The core correction contribution to forces
     atom    1 type  2   force =     0.00000000    0.00000000    0.00000000
     atom    2 type  1   force =     0.00000000   -0.00000000    0.00000000
     The Hubbard contrib.    to forces
     atom    1 type  2   force =     0.00000000    0.00000000    0.00000000
     atom    2 type  1   force =     0.00000000    0.00000000    0.00000000
     The SCF correction term to forces
     atom    1 type  2   force =    -0.00000000    0.00000000   -0.00000000
     atom    2 type  1   force =     0.00000000    0.00000000    0.00000000

     Total force =     0.000000     Total SCF correction =     0.000000


     Computing stress (Cartesian axis) and pressure

          total   stress  (Ry/bohr**3)                   (kbar)     P=      442.08
   0.00300522   0.00000000   0.00000000          442.08        0.00        0.00
   0.00000000   0.00300522   0.00000000            0.00      442.08        0.00
   0.00000000   0.00000000   0.00300522            0.00        0.00      442.08

     kinetic stress (kbar)  51640.69      0.00      0.00
                                0.00  51640.69      0.00
                                0.00      0.00  51640.69

     local   stress (kbar)  25177.64      0.00     -0.00
                                0.00  25177.64      0.00
                               -0.00      0.00  25177.64

     nonloc. stress (kbar)  -1069.63      0.00      0.00
                                0.00  -1069.63      0.00
                                0.00      0.00  -1069.63

     hartree stress (kbar)  80214.69     -0.00      0.00
                               -0.00  80214.69     -0.00
                                0.00     -0.00  80214.69

     exc-cor stress (kbar) -20861.87     -0.00     -0.00
                               -0.00 -20861.87      0.00
                               -0.00      0.00 -20861.87

     corecor stress (kbar)   -573.14      0.00     -0.00
                                0.00   -573.14      0.00
                               -0.00      0.00   -573.14

     ewald   stress (kbar)-134086.30      0.00     -0.00
                                0.00-134086.30      0.00
                               -0.00      0.00-134086.30

     hubbard stress (kbar)      0.00      0.00      0.00
                                0.00      0.00      0.00
                                0.00      0.00      0.00

     DFT-D   stress (kbar)      0.00      0.00      0.00
                                0.00      0.00      0.00
                                0.00      0.00      0.00

     XDM     stress (kbar)      0.00      0.00      0.00
                                0.00      0.00      0.00
                                0.00      0.00      0.00

     dft-nl  stress (kbar)      0.00      0.00      0.00
                                0.00      0.00      0.00
                                0.00      0.00      0.00

     TS-vdW  stress (kbar)      0.00      0.00      0.00
                                0.00      0.00      0.00
                                0.00      0.00      0.00

     MDB     stress (kbar)      0.00      0.00      0.00
                                0.00      0.00      0.00
                                0.00      0.00      0.00

     3D-RISM stress (kbar)      0.00      0.00      0.00
                                0.00      0.00      0.00
                                0.00      0.00      0.00


     Writing all to output data dir ./temp_cubic/aiida.save/ :
     XML data file, charge density, pseudopotentials, collected wavefunctions

     init_run     :     59.23s CPU      2.69s WALL (       1 calls)
     electrons    :   1121.76s CPU     48.38s WALL (       1 calls)
     forces       :     13.32s CPU      0.58s WALL (       1 calls)
     stress       :     13.77s CPU      0.75s WALL (       1 calls)

     Called by init_run:
     wfcinit      :     55.91s CPU      2.35s WALL (       1 calls)
     wfcinit:atom :      1.36s CPU      0.03s WALL (      84 calls)
     wfcinit:wfcr :     53.06s CPU      2.23s WALL (      84 calls)
     potinit      :      0.62s CPU      0.05s WALL (       1 calls)
     hinit0       :      1.25s CPU      0.23s WALL (       1 calls)

     Called by electrons:
     c_bands      :   1004.63s CPU     43.09s WALL (       8 calls)
     sum_band     :    107.89s CPU      4.77s WALL (       8 calls)
     v_of_rho     :      1.10s CPU      0.05s WALL (       9 calls)
     v_h          :      0.24s CPU      0.01s WALL (       9 calls)
     v_xc         :      1.02s CPU      0.05s WALL (      11 calls)
     newd         :      5.11s CPU      0.33s WALL (       9 calls)
     PAW_pot      :      2.91s CPU      0.14s WALL (       9 calls)
     mix_rho      :      0.01s CPU      0.01s WALL (       8 calls)

     Called by c_bands:
     init_us_2    :     17.07s CPU      0.65s WALL (    1596 calls)
     cegterg      :    942.10s CPU     40.59s WALL (     672 calls)

     Called by sum_band:
     sum_band:wei :      0.26s CPU      0.01s WALL (       8 calls)
     sum_band:loo :    104.46s CPU      4.42s WALL (       8 calls)
     sum_band:buf :      0.26s CPU      0.01s WALL (     672 calls)
     sum_band:ini :      4.20s CPU      0.16s WALL (     672 calls)
     sum_band:cal :      6.27s CPU      0.29s WALL (     672 calls)
     sum_band:bec :      6.19s CPU      0.24s WALL (     672 calls)
     addusdens    :      3.04s CPU      0.31s WALL (       8 calls)
                                        0.00s GPU  (       8 calls)
     addusd:skk   :      0.00s CPU      0.00s WALL (      16 calls)
                                        0.00s GPU  (      16 calls)

     Called by *egterg:
     cdiaghg      :     16.80s CPU      0.59s WALL (    2203 calls)
     cegterg:over :     28.11s CPU      1.00s WALL (    1531 calls)
     cegterg:upda :     22.57s CPU      1.15s WALL (    1531 calls)
     cegterg:last :     33.05s CPU      1.46s WALL (    1276 calls)
     h_psi        :    812.23s CPU     35.01s WALL (    2287 calls)
     s_psi        :     17.04s CPU      0.84s WALL (    2287 calls)
     g_psi        :     19.22s CPU      0.78s WALL (    1531 calls)

     Called by h_psi:
     h_psi:calbec :     17.64s CPU      0.76s WALL (    2287 calls)
     vloc_psi     :    748.76s CPU     32.25s WALL (    2287 calls)
     add_vuspsi   :     19.71s CPU      0.84s WALL (    2287 calls)

     General routines
     calbec       :     28.14s CPU      1.21s WALL (    3379 calls)
     fft          :      0.14s CPU      0.04s WALL (     140 calls)
     ffts         :      0.00s CPU      0.00s WALL (      17 calls)
     fftw         :    131.51s CPU      5.65s WALL (   67052 calls)
     interpolate  :      0.00s CPU      0.00s WALL (       9 calls)

     Parallel routines

     PAW routines
     PAW_pot      :      2.91s CPU      0.14s WALL (       9 calls)
     PAW_symme    :      0.00s CPU      0.00s WALL (      17 calls)

     PWSCF        :  20m18.42s CPU     53.43s WALL


   This run was terminated on:  13:43:49   8Jun2024            

=------------------------------------------------------------------------------=
   JOB DONE.
=------------------------------------------------------------------------------=
