
     Program PWSCF v.7.3.1 starts on  8Jun2024 at 19:59:35 

     This program is part of the open-source Quantum ESPRESSO suite
     for quantum simulation of materials; please cite
         "P. Giannozzi et al., J. Phys.:Condens. Matter 21 395502 (2009);
         "P. Giannozzi et al., J. Phys.:Condens. Matter 29 465901 (2017);
         "P. Giannozzi et al., J. Chem. Phys. 152 154105 (2020);
          URL http://www.quantum-espresso.org", 
     in publications or presentations arising from this work. More details at
     http://www.quantum-espresso.org/quote

     Parallel version (MPI & OpenMP), running on      24 processor cores
     Number of MPI processes:                 1
     Threads/MPI process:                    24

     MPI processes distributed on     1 nodes
     4758 MiB available memory on the printing compute node when the environment starts

     Waiting for input...
     Reading input from standard input

     Current dimensions of program PWSCF are:
     Max number of different atomic species (ntypx) = 10
     Max number of k-points (npk) =  40000
     Max angular momentum in pseudopotentials (lmaxx) =  4

     File ./temp_cubic/aiida.update deleted, as requested

     File ./temp_cubic/aiida.bfgs deleted, as requested
     file O.pbe-n-kjpaw_psl.0.1.UPF: wavefunction(s)  2P renormalized
     Found identity + (  0.0000  0.0000 -0.5000) symmetry
     This is a supercell, fractional translations are disabled
     Message from routine setup:
     using ibrav=0 with symmetry is DISCOURAGED, use correct ibrav instead

     Subspace diagonalization in iterative solution of the eigenvalue problem:
     a serial algorithm will be used


     G-vector sticks info
     --------------------
     sticks:   dense  smooth     PW     G-vecs:    dense   smooth      PW
     Sum        3297    1649    481               142081    50301    7809

     Using Slab Decomposition



     bravais-lattice index     =            0
     lattice parameter (alat)  =      10.1737  a.u.
     unit-cell volume          =    1053.0320 (a.u.)^3
     number of atoms/cell      =           16
     number of atomic types    =            2
     number of electrons       =       208.00
     number of Kohn-Sham states=          125
     kinetic-energy cutoff     =      50.0000  Ry
     charge density cutoff     =     400.0000  Ry
     scf convergence threshold =      8.0E-08
     mixing beta               =       0.4000
     number of iterations used =            8  plain     mixing
     energy convergence thresh.=      1.6E-04
     force convergence thresh. =      1.0E-04
     press convergence thresh. =      5.0E-01
     Exchange-correlation= SLA  PW   PBE  PBE
                           (   1   4   3   4   0   0   0)
     nstep                     =           50


     celldm(1)=  10.173737  celldm(2)=   0.000000  celldm(3)=   0.000000
     celldm(4)=   0.000000  celldm(5)=   0.000000  celldm(6)=   0.000000

     crystal axes: (cart. coord. in units of alat)
               a(1) = (   1.000000   0.000000   0.000000 )  
               a(2) = (   0.000000   1.000000   0.000000 )  
               a(3) = (   0.000000   0.000000   1.000000 )  

     reciprocal axes: (cart. coord. in units 2 pi/alat)
               b(1) = (  1.000000  0.000000  0.000000 )  
               b(2) = (  0.000000  1.000000  0.000000 )  
               b(3) = (  0.000000  0.000000  1.000000 )  


     PseudoPot. # 1 for O  read from file:
     ../SSSP_1.3.0_PBE_efficiency/O.pbe-n-kjpaw_psl.0.1.UPF
     MD5 check sum: 0234752ac141de4415c5fc33072bef88
     Pseudo is Projector augmented-wave + core cor, Zval =  6.0
     Generated using "atomic" code by A. Dal Corso  v.5.0.99 svn rev. 10869
     Shape of augmentation charge: BESSEL
     Using radial grid of 1095 points,  4 beta functions with: 
                l(1) =   0
                l(2) =   0
                l(3) =   1
                l(4) =   1
     Q(r) pseudized with 0 coefficients 


     PseudoPot. # 2 for Zn read from file:
     ../SSSP_1.3.0_PBE_efficiency/Zn_pbe_v1.uspp.F.UPF
     MD5 check sum: df62231357ef9e81f77b2b3087fa5675
     Pseudo is Ultrasoft, Zval = 20.0
     Generated by new atomic code, or converted to UPF format
     Using radial grid of  943 points,  6 beta functions with: 
                l(1) =   0
                l(2) =   0
                l(3) =   1
                l(4) =   1
                l(5) =   2
                l(6) =   2
     Q(r) pseudized with  8 coefficients,  rinner =    1.100   1.100   1.100
                                                       1.100   1.100

     atomic species   valence    mass     pseudopotential
     O                 6.00    15.99940     O ( 1.00)
     Zn               20.00    65.38000     Zn( 1.00)

     48 Sym. Ops., with inversion, found


                                    s                        frac. trans.

      isym =  1     identity                                     

 cryst.   s( 1) = (     1          0          0      )
                  (     0          1          0      )
                  (     0          0          1      )

 cart.    s( 1) = (  1.0000000  0.0000000  0.0000000 )
                  (  0.0000000  1.0000000  0.0000000 )
                  (  0.0000000  0.0000000  1.0000000 )


      isym =  2     180 deg rotation - cart. axis [0,0,1]        

 cryst.   s( 2) = (    -1          0          0      )
                  (     0         -1          0      )
                  (     0          0          1      )

 cart.    s( 2) = ( -1.0000000  0.0000000  0.0000000 )
                  (  0.0000000 -1.0000000  0.0000000 )
                  (  0.0000000  0.0000000  1.0000000 )


      isym =  3     180 deg rotation - cart. axis [0,1,0]        

 cryst.   s( 3) = (    -1          0          0      )
                  (     0          1          0      )
                  (     0          0         -1      )

 cart.    s( 3) = ( -1.0000000  0.0000000  0.0000000 )
                  (  0.0000000  1.0000000  0.0000000 )
                  (  0.0000000  0.0000000 -1.0000000 )


      isym =  4     180 deg rotation - cart. axis [1,0,0]        

 cryst.   s( 4) = (     1          0          0      )
                  (     0         -1          0      )
                  (     0          0         -1      )

 cart.    s( 4) = (  1.0000000  0.0000000  0.0000000 )
                  (  0.0000000 -1.0000000  0.0000000 )
                  (  0.0000000  0.0000000 -1.0000000 )


      isym =  5     180 deg rotation - cart. axis [1,1,0]        

 cryst.   s( 5) = (     0          1          0      )
                  (     1          0          0      )
                  (     0          0         -1      )

 cart.    s( 5) = (  0.0000000  1.0000000  0.0000000 )
                  (  1.0000000  0.0000000  0.0000000 )
                  (  0.0000000  0.0000000 -1.0000000 )


      isym =  6     180 deg rotation - cart. axis [1,-1,0]       

 cryst.   s( 6) = (     0         -1          0      )
                  (    -1          0          0      )
                  (     0          0         -1      )

 cart.    s( 6) = (  0.0000000 -1.0000000  0.0000000 )
                  ( -1.0000000  0.0000000  0.0000000 )
                  (  0.0000000  0.0000000 -1.0000000 )


      isym =  7      90 deg rotation - cart. axis [0,0,-1]       

 cryst.   s( 7) = (     0         -1          0      )
                  (     1          0          0      )
                  (     0          0          1      )

 cart.    s( 7) = (  0.0000000  1.0000000  0.0000000 )
                  ( -1.0000000  0.0000000  0.0000000 )
                  (  0.0000000  0.0000000  1.0000000 )


      isym =  8      90 deg rotation - cart. axis [0,0,1]        

 cryst.   s( 8) = (     0          1          0      )
                  (    -1          0          0      )
                  (     0          0          1      )

 cart.    s( 8) = (  0.0000000 -1.0000000  0.0000000 )
                  (  1.0000000  0.0000000  0.0000000 )
                  (  0.0000000  0.0000000  1.0000000 )


      isym =  9     180 deg rotation - cart. axis [1,0,1]        

 cryst.   s( 9) = (     0          0          1      )
                  (     0         -1          0      )
                  (     1          0          0      )

 cart.    s( 9) = (  0.0000000  0.0000000  1.0000000 )
                  (  0.0000000 -1.0000000  0.0000000 )
                  (  1.0000000  0.0000000  0.0000000 )


      isym = 10     180 deg rotation - cart. axis [-1,0,1]       

 cryst.   s(10) = (     0          0         -1      )
                  (     0         -1          0      )
                  (    -1          0          0      )

 cart.    s(10) = (  0.0000000  0.0000000 -1.0000000 )
                  (  0.0000000 -1.0000000  0.0000000 )
                  ( -1.0000000  0.0000000  0.0000000 )


      isym = 11      90 deg rotation - cart. axis [0,1,0]        

 cryst.   s(11) = (     0          0         -1      )
                  (     0          1          0      )
                  (     1          0          0      )

 cart.    s(11) = (  0.0000000  0.0000000  1.0000000 )
                  (  0.0000000  1.0000000  0.0000000 )
                  ( -1.0000000  0.0000000  0.0000000 )


      isym = 12      90 deg rotation - cart. axis [0,-1,0]       

 cryst.   s(12) = (     0          0          1      )
                  (     0          1          0      )
                  (    -1          0          0      )

 cart.    s(12) = (  0.0000000  0.0000000 -1.0000000 )
                  (  0.0000000  1.0000000  0.0000000 )
                  (  1.0000000  0.0000000  0.0000000 )


      isym = 13     180 deg rotation - cart. axis [0,1,1]        

 cryst.   s(13) = (    -1          0          0      )
                  (     0          0          1      )
                  (     0          1          0      )

 cart.    s(13) = ( -1.0000000  0.0000000  0.0000000 )
                  (  0.0000000  0.0000000  1.0000000 )
                  (  0.0000000  1.0000000  0.0000000 )


      isym = 14     180 deg rotation - cart. axis [0,1,-1]       

 cryst.   s(14) = (    -1          0          0      )
                  (     0          0         -1      )
                  (     0         -1          0      )

 cart.    s(14) = ( -1.0000000  0.0000000  0.0000000 )
                  (  0.0000000  0.0000000 -1.0000000 )
                  (  0.0000000 -1.0000000  0.0000000 )


      isym = 15      90 deg rotation - cart. axis [-1,0,0]       

 cryst.   s(15) = (     1          0          0      )
                  (     0          0         -1      )
                  (     0          1          0      )

 cart.    s(15) = (  1.0000000  0.0000000  0.0000000 )
                  (  0.0000000  0.0000000  1.0000000 )
                  (  0.0000000 -1.0000000  0.0000000 )


      isym = 16      90 deg rotation - cart. axis [1,0,0]        

 cryst.   s(16) = (     1          0          0      )
                  (     0          0          1      )
                  (     0         -1          0      )

 cart.    s(16) = (  1.0000000  0.0000000  0.0000000 )
                  (  0.0000000  0.0000000 -1.0000000 )
                  (  0.0000000  1.0000000  0.0000000 )


      isym = 17     120 deg rotation - cart. axis [-1,-1,-1]     

 cryst.   s(17) = (     0          0          1      )
                  (     1          0          0      )
                  (     0          1          0      )

 cart.    s(17) = (  0.0000000  1.0000000  0.0000000 )
                  (  0.0000000  0.0000000  1.0000000 )
                  (  1.0000000  0.0000000  0.0000000 )


      isym = 18     120 deg rotation - cart. axis [-1,1,1]       

 cryst.   s(18) = (     0          0         -1      )
                  (    -1          0          0      )
                  (     0          1          0      )

 cart.    s(18) = (  0.0000000 -1.0000000  0.0000000 )
                  (  0.0000000  0.0000000  1.0000000 )
                  ( -1.0000000  0.0000000  0.0000000 )


      isym = 19     120 deg rotation - cart. axis [1,1,-1]       

 cryst.   s(19) = (     0          0         -1      )
                  (     1          0          0      )
                  (     0         -1          0      )

 cart.    s(19) = (  0.0000000  1.0000000  0.0000000 )
                  (  0.0000000  0.0000000 -1.0000000 )
                  ( -1.0000000  0.0000000  0.0000000 )


      isym = 20     120 deg rotation - cart. axis [1,-1,1]       

 cryst.   s(20) = (     0          0          1      )
                  (    -1          0          0      )
                  (     0         -1          0      )

 cart.    s(20) = (  0.0000000 -1.0000000  0.0000000 )
                  (  0.0000000  0.0000000 -1.0000000 )
                  (  1.0000000  0.0000000  0.0000000 )


      isym = 21     120 deg rotation - cart. axis [1,1,1]        

 cryst.   s(21) = (     0          1          0      )
                  (     0          0          1      )
                  (     1          0          0      )

 cart.    s(21) = (  0.0000000  0.0000000  1.0000000 )
                  (  1.0000000  0.0000000  0.0000000 )
                  (  0.0000000  1.0000000  0.0000000 )


      isym = 22     120 deg rotation - cart. axis [-1,1,-1]      

 cryst.   s(22) = (     0         -1          0      )
                  (     0          0         -1      )
                  (     1          0          0      )

 cart.    s(22) = (  0.0000000  0.0000000  1.0000000 )
                  ( -1.0000000  0.0000000  0.0000000 )
                  (  0.0000000 -1.0000000  0.0000000 )


      isym = 23     120 deg rotation - cart. axis [1,-1,-1]      

 cryst.   s(23) = (     0         -1          0      )
                  (     0          0          1      )
                  (    -1          0          0      )

 cart.    s(23) = (  0.0000000  0.0000000 -1.0000000 )
                  ( -1.0000000  0.0000000  0.0000000 )
                  (  0.0000000  1.0000000  0.0000000 )


      isym = 24     120 deg rotation - cart. axis [-1,-1,1]      

 cryst.   s(24) = (     0          1          0      )
                  (     0          0         -1      )
                  (    -1          0          0      )

 cart.    s(24) = (  0.0000000  0.0000000 -1.0000000 )
                  (  1.0000000  0.0000000  0.0000000 )
                  (  0.0000000 -1.0000000  0.0000000 )


      isym = 25     inversion                                    

 cryst.   s(25) = (    -1          0          0      )
                  (     0         -1          0      )
                  (     0          0         -1      )

 cart.    s(25) = ( -1.0000000  0.0000000  0.0000000 )
                  (  0.0000000 -1.0000000  0.0000000 )
                  (  0.0000000  0.0000000 -1.0000000 )


      isym = 26     inv. 180 deg rotation - cart. axis [0,0,1]   

 cryst.   s(26) = (     1          0          0      )
                  (     0          1          0      )
                  (     0          0         -1      )

 cart.    s(26) = (  1.0000000  0.0000000  0.0000000 )
                  (  0.0000000  1.0000000  0.0000000 )
                  (  0.0000000  0.0000000 -1.0000000 )


      isym = 27     inv. 180 deg rotation - cart. axis [0,1,0]   

 cryst.   s(27) = (     1          0          0      )
                  (     0         -1          0      )
                  (     0          0          1      )

 cart.    s(27) = (  1.0000000  0.0000000  0.0000000 )
                  (  0.0000000 -1.0000000  0.0000000 )
                  (  0.0000000  0.0000000  1.0000000 )


      isym = 28     inv. 180 deg rotation - cart. axis [1,0,0]   

 cryst.   s(28) = (    -1          0          0      )
                  (     0          1          0      )
                  (     0          0          1      )

 cart.    s(28) = ( -1.0000000  0.0000000  0.0000000 )
                  (  0.0000000  1.0000000  0.0000000 )
                  (  0.0000000  0.0000000  1.0000000 )


      isym = 29     inv. 180 deg rotation - cart. axis [1,1,0]   

 cryst.   s(29) = (     0         -1          0      )
                  (    -1          0          0      )
                  (     0          0          1      )

 cart.    s(29) = (  0.0000000 -1.0000000  0.0000000 )
                  ( -1.0000000  0.0000000  0.0000000 )
                  (  0.0000000  0.0000000  1.0000000 )


      isym = 30     inv. 180 deg rotation - cart. axis [1,-1,0]  

 cryst.   s(30) = (     0          1          0      )
                  (     1          0          0      )
                  (     0          0          1      )

 cart.    s(30) = (  0.0000000  1.0000000  0.0000000 )
                  (  1.0000000  0.0000000  0.0000000 )
                  (  0.0000000  0.0000000  1.0000000 )


      isym = 31     inv.  90 deg rotation - cart. axis [0,0,-1]  

 cryst.   s(31) = (     0          1          0      )
                  (    -1          0          0      )
                  (     0          0         -1      )

 cart.    s(31) = (  0.0000000 -1.0000000  0.0000000 )
                  (  1.0000000  0.0000000  0.0000000 )
                  (  0.0000000  0.0000000 -1.0000000 )


      isym = 32     inv.  90 deg rotation - cart. axis [0,0,1]   

 cryst.   s(32) = (     0         -1          0      )
                  (     1          0          0      )
                  (     0          0         -1      )

 cart.    s(32) = (  0.0000000  1.0000000  0.0000000 )
                  ( -1.0000000  0.0000000  0.0000000 )
                  (  0.0000000  0.0000000 -1.0000000 )


      isym = 33     inv. 180 deg rotation - cart. axis [1,0,1]   

 cryst.   s(33) = (     0          0         -1      )
                  (     0          1          0      )
                  (    -1          0          0      )

 cart.    s(33) = (  0.0000000  0.0000000 -1.0000000 )
                  (  0.0000000  1.0000000  0.0000000 )
                  ( -1.0000000  0.0000000  0.0000000 )


      isym = 34     inv. 180 deg rotation - cart. axis [-1,0,1]  

 cryst.   s(34) = (     0          0          1      )
                  (     0          1          0      )
                  (     1          0          0      )

 cart.    s(34) = (  0.0000000  0.0000000  1.0000000 )
                  (  0.0000000  1.0000000  0.0000000 )
                  (  1.0000000  0.0000000  0.0000000 )


      isym = 35     inv.  90 deg rotation - cart. axis [0,1,0]   

 cryst.   s(35) = (     0          0          1      )
                  (     0         -1          0      )
                  (    -1          0          0      )

 cart.    s(35) = (  0.0000000  0.0000000 -1.0000000 )
                  (  0.0000000 -1.0000000  0.0000000 )
                  (  1.0000000  0.0000000  0.0000000 )


      isym = 36     inv.  90 deg rotation - cart. axis [0,-1,0]  

 cryst.   s(36) = (     0          0         -1      )
                  (     0         -1          0      )
                  (     1          0          0      )

 cart.    s(36) = (  0.0000000  0.0000000  1.0000000 )
                  (  0.0000000 -1.0000000  0.0000000 )
                  ( -1.0000000  0.0000000  0.0000000 )


      isym = 37     inv. 180 deg rotation - cart. axis [0,1,1]   

 cryst.   s(37) = (     1          0          0      )
                  (     0          0         -1      )
                  (     0         -1          0      )

 cart.    s(37) = (  1.0000000  0.0000000  0.0000000 )
                  (  0.0000000  0.0000000 -1.0000000 )
                  (  0.0000000 -1.0000000  0.0000000 )


      isym = 38     inv. 180 deg rotation - cart. axis [0,1,-1]  

 cryst.   s(38) = (     1          0          0      )
                  (     0          0          1      )
                  (     0          1          0      )

 cart.    s(38) = (  1.0000000  0.0000000  0.0000000 )
                  (  0.0000000  0.0000000  1.0000000 )
                  (  0.0000000  1.0000000  0.0000000 )


      isym = 39     inv.  90 deg rotation - cart. axis [-1,0,0]  

 cryst.   s(39) = (    -1          0          0      )
                  (     0          0          1      )
                  (     0         -1          0      )

 cart.    s(39) = ( -1.0000000  0.0000000  0.0000000 )
                  (  0.0000000  0.0000000 -1.0000000 )
                  (  0.0000000  1.0000000  0.0000000 )


      isym = 40     inv.  90 deg rotation - cart. axis [1,0,0]   

 cryst.   s(40) = (    -1          0          0      )
                  (     0          0         -1      )
                  (     0          1          0      )

 cart.    s(40) = ( -1.0000000  0.0000000  0.0000000 )
                  (  0.0000000  0.0000000  1.0000000 )
                  (  0.0000000 -1.0000000  0.0000000 )


      isym = 41     inv. 120 deg rotation - cart. axis [-1,-1,-1]

 cryst.   s(41) = (     0          0         -1      )
                  (    -1          0          0      )
                  (     0         -1          0      )

 cart.    s(41) = (  0.0000000 -1.0000000  0.0000000 )
                  (  0.0000000  0.0000000 -1.0000000 )
                  ( -1.0000000  0.0000000  0.0000000 )


      isym = 42     inv. 120 deg rotation - cart. axis [-1,1,1]  

 cryst.   s(42) = (     0          0          1      )
                  (     1          0          0      )
                  (     0         -1          0      )

 cart.    s(42) = (  0.0000000  1.0000000  0.0000000 )
                  (  0.0000000  0.0000000 -1.0000000 )
                  (  1.0000000  0.0000000  0.0000000 )


      isym = 43     inv. 120 deg rotation - cart. axis [1,1,-1]  

 cryst.   s(43) = (     0          0          1      )
                  (    -1          0          0      )
                  (     0          1          0      )

 cart.    s(43) = (  0.0000000 -1.0000000  0.0000000 )
                  (  0.0000000  0.0000000  1.0000000 )
                  (  1.0000000  0.0000000  0.0000000 )


      isym = 44     inv. 120 deg rotation - cart. axis [1,-1,1]  

 cryst.   s(44) = (     0          0         -1      )
                  (     1          0          0      )
                  (     0          1          0      )

 cart.    s(44) = (  0.0000000  1.0000000  0.0000000 )
                  (  0.0000000  0.0000000  1.0000000 )
                  ( -1.0000000  0.0000000  0.0000000 )


      isym = 45     inv. 120 deg rotation - cart. axis [1,1,1]   

 cryst.   s(45) = (     0         -1          0      )
                  (     0          0         -1      )
                  (    -1          0          0      )

 cart.    s(45) = (  0.0000000  0.0000000 -1.0000000 )
                  ( -1.0000000  0.0000000  0.0000000 )
                  (  0.0000000 -1.0000000  0.0000000 )


      isym = 46     inv. 120 deg rotation - cart. axis [-1,1,-1] 

 cryst.   s(46) = (     0          1          0      )
                  (     0          0          1      )
                  (    -1          0          0      )

 cart.    s(46) = (  0.0000000  0.0000000 -1.0000000 )
                  (  1.0000000  0.0000000  0.0000000 )
                  (  0.0000000  1.0000000  0.0000000 )


      isym = 47     inv. 120 deg rotation - cart. axis [1,-1,-1] 

 cryst.   s(47) = (     0          1          0      )
                  (     0          0         -1      )
                  (     1          0          0      )

 cart.    s(47) = (  0.0000000  0.0000000  1.0000000 )
                  (  1.0000000  0.0000000  0.0000000 )
                  (  0.0000000 -1.0000000  0.0000000 )


      isym = 48     inv. 120 deg rotation - cart. axis [-1,-1,1] 

 cryst.   s(48) = (     0         -1          0      )
                  (     0          0          1      )
                  (     1          0          0      )

 cart.    s(48) = (  0.0000000  0.0000000  1.0000000 )
                  ( -1.0000000  0.0000000  0.0000000 )
                  (  0.0000000  1.0000000  0.0000000 )


   Cartesian axes

     site n.     atom                  positions (alat units)
         1        Zn     tau(   1) = (   0.0000000   0.0000000   0.0000000  )
         2        O      tau(   2) = (   0.2500000   0.2500000   0.2500000  )
         3        Zn     tau(   3) = (   0.0000000   0.0000000   0.5000000  )
         4        O      tau(   4) = (   0.2500000   0.2500000   0.7500000  )
         5        Zn     tau(   5) = (   0.0000000   0.5000000   0.0000000  )
         6        O      tau(   6) = (   0.2500000   0.7500000   0.2500000  )
         7        Zn     tau(   7) = (   0.0000000   0.5000000   0.5000000  )
         8        O      tau(   8) = (   0.2500000   0.7500000   0.7500000  )
         9        Zn     tau(   9) = (   0.5000000   0.0000000   0.0000000  )
        10        O      tau(  10) = (   0.7500000   0.2500000   0.2500000  )
        11        Zn     tau(  11) = (   0.5000000   0.0000000   0.5000000  )
        12        O      tau(  12) = (   0.7500000   0.2500000   0.7500000  )
        13        Zn     tau(  13) = (   0.5000000   0.5000000   0.0000000  )
        14        O      tau(  14) = (   0.7500000   0.7500000   0.2500000  )
        15        Zn     tau(  15) = (   0.5000000   0.5000000   0.5000000  )
        16        O      tau(  16) = (   0.7500000   0.7500000   0.7500000  )

   Crystallographic axes

     site n.     atom                  positions (cryst. coord.)
         1        Zn     tau(   1) = (  0.0000000  0.0000000  0.0000000  )
         2        O      tau(   2) = (  0.2500000  0.2500000  0.2500000  )
         3        Zn     tau(   3) = (  0.0000000  0.0000000  0.5000000  )
         4        O      tau(   4) = (  0.2500000  0.2500000  0.7500000  )
         5        Zn     tau(   5) = (  0.0000000  0.5000000  0.0000000  )
         6        O      tau(   6) = (  0.2500000  0.7500000  0.2500000  )
         7        Zn     tau(   7) = (  0.0000000  0.5000000  0.5000000  )
         8        O      tau(   8) = (  0.2500000  0.7500000  0.7500000  )
         9        Zn     tau(   9) = (  0.5000000  0.0000000  0.0000000  )
        10        O      tau(  10) = (  0.7500000  0.2500000  0.2500000  )
        11        Zn     tau(  11) = (  0.5000000  0.0000000  0.5000000  )
        12        O      tau(  12) = (  0.7500000  0.2500000  0.7500000  )
        13        Zn     tau(  13) = (  0.5000000  0.5000000  0.0000000  )
        14        O      tau(  14) = (  0.7500000  0.7500000  0.2500000  )
        15        Zn     tau(  15) = (  0.5000000  0.5000000  0.5000000  )
        16        O      tau(  16) = (  0.7500000  0.7500000  0.7500000  )

     number of k points=    20  Marzari-Vanderbilt smearing, width (Ry)=  0.0147
                       cart. coord. in units 2pi/alat
        k(    1) = (   0.0000000   0.0000000   0.0000000), wk =   0.0092593
        k(    2) = (   0.0000000   0.0000000   0.1666667), wk =   0.0555556
        k(    3) = (   0.0000000   0.0000000   0.3333333), wk =   0.0555556
        k(    4) = (   0.0000000   0.0000000  -0.5000000), wk =   0.0277778
        k(    5) = (   0.0000000   0.1666667   0.1666667), wk =   0.1111111
        k(    6) = (   0.0000000   0.1666667   0.3333333), wk =   0.2222222
        k(    7) = (   0.0000000   0.1666667  -0.5000000), wk =   0.1111111
        k(    8) = (   0.0000000   0.3333333   0.3333333), wk =   0.1111111
        k(    9) = (   0.0000000   0.3333333  -0.5000000), wk =   0.1111111
        k(   10) = (   0.0000000  -0.5000000  -0.5000000), wk =   0.0277778
        k(   11) = (   0.1666667   0.1666667   0.1666667), wk =   0.0740741
        k(   12) = (   0.1666667   0.1666667   0.3333333), wk =   0.2222222
        k(   13) = (   0.1666667   0.1666667  -0.5000000), wk =   0.1111111
        k(   14) = (   0.1666667   0.3333333   0.3333333), wk =   0.2222222
        k(   15) = (   0.1666667   0.3333333  -0.5000000), wk =   0.2222222
        k(   16) = (   0.1666667  -0.5000000  -0.5000000), wk =   0.0555556
        k(   17) = (   0.3333333   0.3333333   0.3333333), wk =   0.0740741
        k(   18) = (   0.3333333   0.3333333  -0.5000000), wk =   0.1111111
        k(   19) = (   0.3333333  -0.5000000  -0.5000000), wk =   0.0555556
        k(   20) = (  -0.5000000  -0.5000000  -0.5000000), wk =   0.0092593

                       cryst. coord.
        k(    1) = (   0.0000000   0.0000000   0.0000000), wk =   0.0092593
        k(    2) = (   0.0000000   0.0000000   0.1666667), wk =   0.0555556
        k(    3) = (   0.0000000   0.0000000   0.3333333), wk =   0.0555556
        k(    4) = (   0.0000000   0.0000000  -0.5000000), wk =   0.0277778
        k(    5) = (   0.0000000   0.1666667   0.1666667), wk =   0.1111111
        k(    6) = (   0.0000000   0.1666667   0.3333333), wk =   0.2222222
        k(    7) = (   0.0000000   0.1666667  -0.5000000), wk =   0.1111111
        k(    8) = (   0.0000000   0.3333333   0.3333333), wk =   0.1111111
        k(    9) = (   0.0000000   0.3333333  -0.5000000), wk =   0.1111111
        k(   10) = (   0.0000000  -0.5000000  -0.5000000), wk =   0.0277778
        k(   11) = (   0.1666667   0.1666667   0.1666667), wk =   0.0740741
        k(   12) = (   0.1666667   0.1666667   0.3333333), wk =   0.2222222
        k(   13) = (   0.1666667   0.1666667  -0.5000000), wk =   0.1111111
        k(   14) = (   0.1666667   0.3333333   0.3333333), wk =   0.2222222
        k(   15) = (   0.1666667   0.3333333  -0.5000000), wk =   0.2222222
        k(   16) = (   0.1666667  -0.5000000  -0.5000000), wk =   0.0555556
        k(   17) = (   0.3333333   0.3333333   0.3333333), wk =   0.0740741
        k(   18) = (   0.3333333   0.3333333  -0.5000000), wk =   0.1111111
        k(   19) = (   0.3333333  -0.5000000  -0.5000000), wk =   0.0555556
        k(   20) = (  -0.5000000  -0.5000000  -0.5000000), wk =   0.0092593

     Dense  grid:   142081 G-vectors     FFT dimensions: (  72,  72,  72)

     Smooth grid:    50301 G-vectors     FFT dimensions: (  45,  45,  45)

     Dynamical RAM for                 wfc:      11.99 MB

     Dynamical RAM for     wfc (w. buffer):     251.82 MB

     Dynamical RAM for           str. fact:       4.34 MB

     Dynamical RAM for           local pot:       0.00 MB

     Dynamical RAM for          nlocal pot:      19.95 MB

     Dynamical RAM for                qrad:       6.42 MB

     Dynamical RAM for          rho,v,vnew:      15.05 MB

     Dynamical RAM for               rhoin:       5.02 MB

     Dynamical RAM for            rho*nmix:      34.69 MB

     Dynamical RAM for           G-vectors:       8.51 MB

     Dynamical RAM for          h,s,v(r/c):       2.86 MB

     Dynamical RAM for          <psi|beta>:       0.40 MB

     Dynamical RAM for                 psi:      23.98 MB

     Dynamical RAM for                hpsi:      23.98 MB

     Dynamical RAM for                spsi:      23.98 MB

     Dynamical RAM for      wfcinit/wfcrot:      26.52 MB

     Dynamical RAM for           addusdens:     420.59 MB

     Dynamical RAM for          addusforce:     452.06 MB

     Dynamical RAM for         addusstress:     435.76 MB

     Estimated static dynamical RAM per process >     331.85 MB

     Estimated max dynamical RAM per process >     818.60 MB

     Check: negative core charge=   -0.000003

     Initial potential from superposition of free atoms

     starting charge     207.9989, renormalised to     208.0000
     Starting wfcs are  136 randomized atomic wfcs
     Checking if some PAW data can be deallocated... 

     total cpu time spent up to now is       27.0 secs

     Self-consistent Calculation

     iteration #  1     ecut=    50.00 Ry     beta= 0.40
     Davidson diagonalization with overlap

---- Real-time Memory Report at c_bands before calling an iterative solver
           507 MiB given to the printing process from OS
             0 MiB allocation reported by mallinfo(arena+hblkhd)
          4393 MiB available memory on the node where the printing process lives
------------------
     ethr =  1.00E-02,  avg # of iterations =  2.8

     total cpu time spent up to now is      151.0 secs

     WARNING: integrated charge=   208.00007747, expected=   208.00000000

     total energy              =   -4024.31301578 Ry
     estimated scf accuracy    <       3.75307688 Ry

     iteration #  2     ecut=    50.00 Ry     beta= 0.40
     Davidson diagonalization with overlap

---- Real-time Memory Report at c_bands before calling an iterative solver
           808 MiB given to the printing process from OS
             0 MiB allocation reported by mallinfo(arena+hblkhd)
          4337 MiB available memory on the node where the printing process lives
------------------
     ethr =  1.80E-03,  avg # of iterations =  2.0
     Minimization algorithm failed to find Fermi energy: reverting to bisection
     Possible cause: smearing is larger than the electronic band-gap.

     total cpu time spent up to now is      291.4 secs

     WARNING: integrated charge=   208.00005472, expected=   208.00000000

     total energy              =   -4025.34104588 Ry
     estimated scf accuracy    <       0.62380698 Ry

     iteration #  3     ecut=    50.00 Ry     beta= 0.40
     Davidson diagonalization with overlap

---- Real-time Memory Report at c_bands before calling an iterative solver
           809 MiB given to the printing process from OS
             0 MiB allocation reported by mallinfo(arena+hblkhd)
          4346 MiB available memory on the node where the printing process lives
------------------
     ethr =  3.00E-04,  avg # of iterations =  2.0
     Minimization algorithm failed to find Fermi energy: reverting to bisection
     Possible cause: smearing is larger than the electronic band-gap.

     total cpu time spent up to now is      436.0 secs

     WARNING: integrated charge=   208.00002453, expected=   208.00000000

     total energy              =   -4025.43071089 Ry
     estimated scf accuracy    <       0.04042565 Ry

     iteration #  4     ecut=    50.00 Ry     beta= 0.40
     Davidson diagonalization with overlap

---- Real-time Memory Report at c_bands before calling an iterative solver
           810 MiB given to the printing process from OS
             0 MiB allocation reported by mallinfo(arena+hblkhd)
          4341 MiB available memory on the node where the printing process lives
------------------
     ethr =  1.94E-05,  avg # of iterations =  3.6
     Minimization algorithm failed to find Fermi energy: reverting to bisection
     Possible cause: smearing is larger than the electronic band-gap.

     total cpu time spent up to now is      569.7 secs

     total energy              =   -4025.43101182 Ry
     estimated scf accuracy    <       0.00578881 Ry

     iteration #  5     ecut=    50.00 Ry     beta= 0.40
     Davidson diagonalization with overlap

---- Real-time Memory Report at c_bands before calling an iterative solver
           812 MiB given to the printing process from OS
             0 MiB allocation reported by mallinfo(arena+hblkhd)
          4337 MiB available memory on the node where the printing process lives
------------------
     ethr =  2.78E-06,  avg # of iterations =  3.3
     Minimization algorithm failed to find Fermi energy: reverting to bisection
     Possible cause: smearing is larger than the electronic band-gap.

     total cpu time spent up to now is      716.7 secs

     total energy              =   -4025.43149361 Ry
     estimated scf accuracy    <       0.00007072 Ry

     iteration #  6     ecut=    50.00 Ry     beta= 0.40
     Davidson diagonalization with overlap

---- Real-time Memory Report at c_bands before calling an iterative solver
           813 MiB given to the printing process from OS
             0 MiB allocation reported by mallinfo(arena+hblkhd)
          4331 MiB available memory on the node where the printing process lives
------------------
     ethr =  3.40E-08,  avg # of iterations =  3.5
     Minimization algorithm failed to find Fermi energy: reverting to bisection
     Possible cause: smearing is larger than the electronic band-gap.

     total cpu time spent up to now is      892.3 secs

     total energy              =   -4025.43151791 Ry
     estimated scf accuracy    <       0.00009221 Ry

     iteration #  7     ecut=    50.00 Ry     beta= 0.40
     Davidson diagonalization with overlap

---- Real-time Memory Report at c_bands before calling an iterative solver
           815 MiB given to the printing process from OS
             0 MiB allocation reported by mallinfo(arena+hblkhd)
          4329 MiB available memory on the node where the printing process lives
------------------
     ethr =  3.40E-08,  avg # of iterations =  2.0
     Minimization algorithm failed to find Fermi energy: reverting to bisection
     Possible cause: smearing is larger than the electronic band-gap.

     total cpu time spent up to now is     1023.7 secs

     total energy              =   -4025.43152218 Ry
     estimated scf accuracy    <       0.00000648 Ry

     iteration #  8     ecut=    50.00 Ry     beta= 0.40
     Davidson diagonalization with overlap

---- Real-time Memory Report at c_bands before calling an iterative solver
           817 MiB given to the printing process from OS
             0 MiB allocation reported by mallinfo(arena+hblkhd)
          4325 MiB available memory on the node where the printing process lives
------------------
     ethr =  3.12E-09,  avg # of iterations =  2.0
     Minimization algorithm failed to find Fermi energy: reverting to bisection
     Possible cause: smearing is larger than the electronic band-gap.

     total cpu time spent up to now is     1181.4 secs

     total energy              =   -4025.43152379 Ry
     estimated scf accuracy    <       0.00000043 Ry

     iteration #  9     ecut=    50.00 Ry     beta= 0.40
     Davidson diagonalization with overlap

---- Real-time Memory Report at c_bands before calling an iterative solver
           825 MiB given to the printing process from OS
             0 MiB allocation reported by mallinfo(arena+hblkhd)
          4323 MiB available memory on the node where the printing process lives
------------------
     ethr =  2.08E-10,  avg # of iterations =  2.4
     Minimization algorithm failed to find Fermi energy: reverting to bisection
     Possible cause: smearing is larger than the electronic band-gap.

     total cpu time spent up to now is     1292.7 secs

     End of self-consistent calculation

          k = 0.0000 0.0000 0.0000 (  6355 PWs)   bands (ev):

  -112.3501-112.3490-112.3490-112.3490-112.3479-112.3479-112.3478-112.3468
   -66.5488 -66.5488 -66.5488 -66.5472 -66.5472 -66.5472 -66.5472 -66.5472
   -66.5472 -66.5462 -66.5462 -66.5462 -66.5311 -66.5311 -66.5311 -66.5303
   -66.5303 -66.5303 -66.5303 -66.5303 -66.5303 -66.5289 -66.5289 -66.5289
    -6.0166  -4.7874  -4.7874  -4.7874  -4.0854  -4.0854  -4.0854  -3.2531
     4.4452   4.4452   4.4452   5.3012   5.3012   5.3012   5.9433   5.9433
     6.0755   6.0755   6.0755   6.2121   6.2121   6.2121   6.4334   6.4334
     6.4334   6.4334   6.4334   6.4334   6.7383   6.7383   6.7383   6.7383
     6.7383   6.7383   6.7988   6.7988   6.7988   7.0083   7.0083   7.0083
     7.0419   7.0419   7.0419   7.2618   7.2618   7.2618   7.2790   7.2790
     7.6152   7.6152   7.6152   7.6152   7.6152   7.6152   7.8745   7.8745
     7.8745  11.0012  11.0012  11.0012  11.2235  11.2235  11.2235  11.5403
    12.2542  12.2542  12.2542  12.4035  12.4035  12.4035  12.4035  12.4035
    12.4035  15.0071  15.0071  15.0071  17.4487  17.4487  17.4487  17.9142
    17.9142  17.9142  18.8401  18.8401  18.8401  21.6640  22.4186  22.4186
    22.4186  22.4187  22.4187  22.4187  26.4797

     occupation numbers 
     1.0000   1.0000   1.0000   1.0000   1.0000   1.0000   1.0000   1.0000
     1.0000   1.0000   1.0000   1.0000   1.0000   1.0000   1.0000   1.0000
     1.0000   1.0000   1.0000   1.0000   1.0000   1.0000   1.0000   1.0000
     1.0000   1.0000   1.0000   1.0000   1.0000   1.0000   1.0000   1.0000
     1.0000   1.0000   1.0000   1.0000   1.0000   1.0000   1.0000   1.0000
     1.0000   1.0000   1.0000   1.0000   1.0000   1.0000   1.0000   1.0000
     1.0000   1.0000   1.0000   1.0000   1.0000   1.0000   1.0000   1.0000
     1.0000   1.0000   1.0000   1.0000   1.0000   1.0000   1.0000   1.0000
     1.0000   1.0000   1.0000   1.0000   1.0000   1.0000   1.0000   1.0000
     1.0000   1.0000   1.0000   1.0000   1.0000   1.0000   1.0000   1.0000
     1.0000   1.0000   1.0000   1.0000   1.0000   1.0000   1.0000   1.0000
     1.0000   1.0000   1.0000   1.0000   1.0000   1.0000   1.0000   1.0000
     0.9841   0.9841   0.9841   0.4961   0.4961   0.4961   0.4961   0.4961
     0.4961   0.0000   0.0000   0.0000   0.0000   0.0000   0.0000   0.0000
     0.0000   0.0000   0.0000   0.0000   0.0000   0.0000   0.0000   0.0000
     0.0000   0.0000   0.0000   0.0000   0.0000

          k = 0.0000 0.0000 0.1667 (  6307 PWs)   bands (ev):

  -112.3500-112.3491-112.3489-112.3489-112.3479-112.3479-112.3478-112.3468
   -66.5487 -66.5487 -66.5476 -66.5473 -66.5473 -66.5471 -66.5471 -66.5461
   -66.5461 -66.5457 -66.5457 -66.5445 -66.5324 -66.5313 -66.5313 -66.5311
   -66.5311 -66.5303 -66.5303 -66.5302 -66.5301 -66.5301 -66.5290 -66.5290
    -5.9480  -4.8882  -4.7451  -4.7451  -4.1380  -4.1380  -4.0368  -3.3176
     4.5576   4.5576   4.6555   5.3516   5.3516   5.4190   5.9520   5.9570
     6.0665   6.1058   6.1058   6.1364   6.1364   6.2808   6.4299   6.4299
     6.4530   6.4530   6.4666   6.4666   6.4776   6.4776   6.6688   6.6688
     6.7163   6.7169   6.7169   6.7579   6.7579   6.9627   6.9627   6.9748
     6.9748   7.0105   7.0209   7.0209   7.0396   7.2054   7.2629   7.2781
     7.7398   7.7398   7.8543   7.8758   7.8758   7.9685   7.9685   7.9706
     7.9706  10.1212  10.7549  10.7549  11.0574  11.3054  11.3054  11.9502
    11.9502  12.1344  12.2651  12.2651  12.3250  12.3250  12.3943  12.3943
    12.5864  15.0985  15.3457  15.3457  16.7170  17.4215  17.8817  17.8817
    18.2599  18.2599  18.6609  18.6609  19.7395  22.0342  22.0342  22.1309
    22.1309  22.5159  22.5632  22.5632  25.8123

     occupation numbers 
     1.0000   1.0000   1.0000   1.0000   1.0000   1.0000   1.0000   1.0000
     1.0000   1.0000   1.0000   1.0000   1.0000   1.0000   1.0000   1.0000
     1.0000   1.0000   1.0000   1.0000   1.0000   1.0000   1.0000   1.0000
     1.0000   1.0000   1.0000   1.0000   1.0000   1.0000   1.0000   1.0000
     1.0000   1.0000   1.0000   1.0000   1.0000   1.0000   1.0000   1.0000
     1.0000   1.0000   1.0000   1.0000   1.0000   1.0000   1.0000   1.0000
     1.0000   1.0000   1.0000   1.0000   1.0000   1.0000   1.0000   1.0000
     1.0000   1.0000   1.0000   1.0000   1.0000   1.0000   1.0000   1.0000
     1.0000   1.0000   1.0000   1.0000   1.0000   1.0000   1.0000   1.0000
     1.0000   1.0000   1.0000   1.0000   1.0000   1.0000   1.0000   1.0000
     1.0000   1.0000   1.0000   1.0000   1.0000   1.0000   1.0000   1.0000
     1.0000   1.0000   1.0000   1.0000   1.0000   1.0000   1.0000   1.0143
     1.0143   1.0823   0.9602   0.9602   0.7852   0.7852   0.5301   0.5301
     0.0614   0.0000   0.0000   0.0000   0.0000   0.0000   0.0000   0.0000
     0.0000   0.0000   0.0000   0.0000   0.0000   0.0000   0.0000   0.0000
     0.0000   0.0000   0.0000   0.0000   0.0000

          k = 0.0000 0.0000 0.3333 (  6311 PWs)   bands (ev):

  -112.3498-112.3493-112.3487-112.3487-112.3482-112.3481-112.3476-112.3470
   -66.5485 -66.5485 -66.5476 -66.5476 -66.5468 -66.5468 -66.5460 -66.5460
   -66.5444 -66.5430 -66.5430 -66.5415 -66.5357 -66.5343 -66.5343 -66.5331
   -66.5310 -66.5310 -66.5305 -66.5305 -66.5299 -66.5299 -66.5293 -66.5293
    -5.7527  -5.1461  -4.6264  -4.6264  -4.2768  -4.2768  -3.8996  -3.4864
     4.8799   4.8800   5.1824   5.5015   5.5015   5.7280   5.8498   5.8498
     5.9417   5.9761   6.0422   6.0833   6.0833   6.1937   6.1937   6.4268
     6.4268   6.4708   6.4775   6.5069   6.5070   6.5184   6.5184   6.5602
     6.5602   6.5775   6.5775   6.6593   6.6593   6.8121   6.8121   6.8448
     6.8448   6.9640   6.9640   7.0050   7.0166   7.0334   7.2661   7.2749
     7.8358   7.8358   7.8665   7.8771   7.8771   8.6334   8.6334   8.7626
     8.7626   8.9642  10.1457  10.1457  10.9341  10.9341  11.2266  11.5253
    11.5253  11.8394  12.1115  12.1115  12.2941  12.2941  12.3687  12.3687
    13.6727  15.3803  15.6853  16.2020  16.2020  16.5802  18.1148  18.1148
    18.8607  18.8607  19.1417  19.1417  21.1209  21.1209  21.2278  21.3456
    21.3456  23.0228  23.0228  24.4074  24.4362

     occupation numbers 
     1.0000   1.0000   1.0000   1.0000   1.0000   1.0000   1.0000   1.0000
     1.0000   1.0000   1.0000   1.0000   1.0000   1.0000   1.0000   1.0000
     1.0000   1.0000   1.0000   1.0000   1.0000   1.0000   1.0000   1.0000
     1.0000   1.0000   1.0000   1.0000   1.0000   1.0000   1.0000   1.0000
     1.0000   1.0000   1.0000   1.0000   1.0000   1.0000   1.0000   1.0000
     1.0000   1.0000   1.0000   1.0000   1.0000   1.0000   1.0000   1.0000
     1.0000   1.0000   1.0000   1.0000   1.0000   1.0000   1.0000   1.0000
     1.0000   1.0000   1.0000   1.0000   1.0000   1.0000   1.0000   1.0000
     1.0000   1.0000   1.0000   1.0000   1.0000   1.0000   1.0000   1.0000
     1.0000   1.0000   1.0000   1.0000   1.0000   1.0000   1.0000   1.0000
     1.0000   1.0000   1.0000   1.0000   1.0000   1.0000   1.0000   1.0000
     1.0000   1.0000   1.0000   1.0000   1.0000   1.0000   1.0000   1.0000
     1.0000   1.0018   1.0768   1.0768   0.8840   0.8840   0.6266   0.6266
     0.0000   0.0000   0.0000   0.0000   0.0000   0.0000   0.0000   0.0000
     0.0000   0.0000   0.0000   0.0000   0.0000   0.0000   0.0000   0.0000
     0.0000   0.0000   0.0000   0.0000   0.0000

          k = 0.0000 0.0000-0.5000 (  6302 PWs)   bands (ev):

  -112.3496-112.3496-112.3484-112.3484-112.3484-112.3484-112.3473-112.3473
   -66.5480 -66.5480 -66.5479 -66.5479 -66.5465 -66.5465 -66.5464 -66.5464
   -66.5402 -66.5402 -66.5386 -66.5386 -66.5386 -66.5385 -66.5374 -66.5374
   -66.5308 -66.5308 -66.5308 -66.5308 -66.5295 -66.5295 -66.5295 -66.5295
    -5.4646  -5.4646  -4.4566  -4.4566  -4.4566  -4.4566  -3.7008  -3.7008
     5.3574   5.3574   5.3574   5.3574   5.7141   5.7141   5.7481   5.7481
     5.7481   5.7481   6.0090   6.0090   6.1202   6.1203   6.3380   6.3380
     6.3380   6.3380   6.4457   6.4457   6.4458   6.4458   6.5822   6.5822
     6.5822   6.5823   6.6965   6.6965   6.6965   6.6965   6.7353   6.7353
     6.8874   6.8874   6.8874   6.8874   7.0250   7.0250   7.2705   7.2705
     7.8701   7.8701   7.8701   7.8701   8.1569   8.1570   9.3906   9.3906
     9.3906   9.3906   9.7951   9.7951   9.7951   9.7951  11.5019  11.5019
    11.8199  11.8199  11.8199  11.8199  12.3322  12.3322  12.3322  12.3322
    14.6851  14.6851  15.8715  15.8715  17.2341  17.2341  17.2341  17.2341
    20.0026  20.0026  20.0026  20.0026  20.2637  20.2637  20.2637  20.2637
    22.8434  22.8434  23.8753  23.8753  23.8754

     occupation numbers 
     1.0000   1.0000   1.0000   1.0000   1.0000   1.0000   1.0000   1.0000
     1.0000   1.0000   1.0000   1.0000   1.0000   1.0000   1.0000   1.0000
     1.0000   1.0000   1.0000   1.0000   1.0000   1.0000   1.0000   1.0000
     1.0000   1.0000   1.0000   1.0000   1.0000   1.0000   1.0000   1.0000
     1.0000   1.0000   1.0000   1.0000   1.0000   1.0000   1.0000   1.0000
     1.0000   1.0000   1.0000   1.0000   1.0000   1.0000   1.0000   1.0000
     1.0000   1.0000   1.0000   1.0000   1.0000   1.0000   1.0000   1.0000
     1.0000   1.0000   1.0000   1.0000   1.0000   1.0000   1.0000   1.0000
     1.0000   1.0000   1.0000   1.0000   1.0000   1.0000   1.0000   1.0000
     1.0000   1.0000   1.0000   1.0000   1.0000   1.0000   1.0000   1.0000
     1.0000   1.0000   1.0000   1.0000   1.0000   1.0000   1.0000   1.0000
     1.0000   1.0000   1.0000   1.0000   1.0000   1.0000   1.0000   1.0000
     1.0012   1.0012   1.0012   1.0012   0.7603   0.7603   0.7603   0.7603
     0.0000   0.0000   0.0000   0.0000   0.0000   0.0000   0.0000   0.0000
     0.0000   0.0000   0.0000   0.0000   0.0000   0.0000   0.0000   0.0000
     0.0000   0.0000   0.0000   0.0000   0.0000

          k = 0.0000 0.1667 0.1667 (  6304 PWs)   bands (ev):

  -112.3500-112.3490-112.3490-112.3489-112.3480-112.3479-112.3479-112.3469
   -66.5486 -66.5475 -66.5475 -66.5472 -66.5472 -66.5463 -66.5461 -66.5460
   -66.5460 -66.5459 -66.5447 -66.5446 -66.5324 -66.5323 -66.5314 -66.5314
   -66.5312 -66.5312 -66.5311 -66.5302 -66.5302 -66.5302 -66.5302 -66.5291
    -5.8805  -4.8432  -4.8432  -4.7024  -4.1944  -4.0899  -4.0899  -3.3811
     4.6661   4.7586   4.7586   5.3831   5.3974   5.5515   5.9614   5.9752
     6.0570   6.0946   6.0946   6.1364   6.1738   6.1738   6.3663   6.3936
     6.3936   6.4629   6.4629   6.4847   6.4847   6.5113   6.5113   6.5281
     6.5977   6.7189   6.7565   6.7663   6.7664   6.9021   6.9123   6.9434
     6.9903   6.9975   7.0179   7.0179   7.1092   7.1092   7.1707   7.2380
     7.8296   7.8606   7.8606   7.8842   7.9709   7.9709   8.1026   8.2015
     8.2015   9.8218  10.5101  10.5961  11.0068  11.0587  11.3806  11.6849
    11.8596  11.8596  12.1386  12.1386  12.2595  12.2700  12.3219  12.3219
    13.2085  15.4360  15.4360  15.6546  17.0349  17.0349  17.3544  18.2478
    18.3258  18.5156  18.5614  19.7024  19.7024  21.8256  21.8256  21.8517
    22.2594  22.2594  22.5675  23.2096  25.6919

     occupation numbers 
     1.0000   1.0000   1.0000   1.0000   1.0000   1.0000   1.0000   1.0000
     1.0000   1.0000   1.0000   1.0000   1.0000   1.0000   1.0000   1.0000
     1.0000   1.0000   1.0000   1.0000   1.0000   1.0000   1.0000   1.0000
     1.0000   1.0000   1.0000   1.0000   1.0000   1.0000   1.0000   1.0000
     1.0000   1.0000   1.0000   1.0000   1.0000   1.0000   1.0000   1.0000
     1.0000   1.0000   1.0000   1.0000   1.0000   1.0000   1.0000   1.0000
     1.0000   1.0000   1.0000   1.0000   1.0000   1.0000   1.0000   1.0000
     1.0000   1.0000   1.0000   1.0000   1.0000   1.0000   1.0000   1.0000
     1.0000   1.0000   1.0000   1.0000   1.0000   1.0000   1.0000   1.0000
     1.0000   1.0000   1.0000   1.0000   1.0000   1.0000   1.0000   1.0000
     1.0000   1.0000   1.0000   1.0000   1.0000   1.0000   1.0000   1.0000
     1.0000   1.0000   1.0000   1.0000   1.0000   1.0000   1.0000   1.0000
     1.0028   1.0028   1.0829   1.0829   0.9728   0.9486   0.7959   0.7959
     0.0000   0.0000   0.0000   0.0000   0.0000   0.0000   0.0000   0.0000
     0.0000   0.0000   0.0000   0.0000   0.0000   0.0000   0.0000   0.0000
     0.0000   0.0000   0.0000   0.0000   0.0000

          k = 0.0000 0.1667 0.3333 (  6282 PWs)   bands (ev):

  -112.3498-112.3492-112.3488-112.3486-112.3482-112.3481-112.3476-112.3471
   -66.5483 -66.5475 -66.5472 -66.5469 -66.5464 -66.5461 -66.5456 -66.5449
   -66.5443 -66.5430 -66.5429 -66.5416 -66.5356 -66.5345 -66.5342 -66.5332
   -66.5321 -66.5316 -66.5310 -66.5309 -66.5304 -66.5303 -66.5300 -66.5293
    -5.6887  -5.0947  -4.7169  -4.5828  -4.3434  -4.2302  -3.9544  -3.5470
     4.9748   5.0490   5.2587   5.5146   5.5333   5.8312   5.8656   5.8771
     5.9593   6.0007   6.0336   6.0446   6.0662   6.1782   6.2243   6.3056
     6.3094   6.4595   6.4832   6.4990   6.5110   6.5348   6.5480   6.5742
     6.5866   6.6047   6.6210   6.6742   6.7714   6.7874   6.8040   6.8423
     6.8831   6.9367   6.9591   6.9884   6.9890   7.0098   7.1757   7.2162
     7.8773   7.8924   7.8995   7.9066   7.9608   8.5208   8.7228   8.7453
     8.8518   8.9647   9.9169  10.0865  10.8259  10.8341  11.0417  11.2013
    11.5833  11.6201  11.8286  12.1246  12.1496  12.1885  12.2827  12.3127
    14.1677  15.7098  16.0409  16.2771  16.4077  16.7874  17.4488  18.0534
    19.0997  19.1250  19.3351  19.7693  21.0675  21.1623  21.2146  21.2244
    21.4300  22.6768  22.9532  24.4834  24.8568

     occupation numbers 
     1.0000   1.0000   1.0000   1.0000   1.0000   1.0000   1.0000   1.0000
     1.0000   1.0000   1.0000   1.0000   1.0000   1.0000   1.0000   1.0000
     1.0000   1.0000   1.0000   1.0000   1.0000   1.0000   1.0000   1.0000
     1.0000   1.0000   1.0000   1.0000   1.0000   1.0000   1.0000   1.0000
     1.0000   1.0000   1.0000   1.0000   1.0000   1.0000   1.0000   1.0000
     1.0000   1.0000   1.0000   1.0000   1.0000   1.0000   1.0000   1.0000
     1.0000   1.0000   1.0000   1.0000   1.0000   1.0000   1.0000   1.0000
     1.0000   1.0000   1.0000   1.0000   1.0000   1.0000   1.0000   1.0000
     1.0000   1.0000   1.0000   1.0000   1.0000   1.0000   1.0000   1.0000
     1.0000   1.0000   1.0000   1.0000   1.0000   1.0000   1.0000   1.0000
     1.0000   1.0000   1.0000   1.0000   1.0000   1.0000   1.0000   1.0000
     1.0000   1.0000   1.0000   1.0000   1.0000   1.0000   1.0000   1.0000
     1.0000   1.0000   1.0014   1.0805   1.0833   1.0712   0.9160   0.8265
     0.0000   0.0000   0.0000   0.0000   0.0000   0.0000   0.0000   0.0000
     0.0000   0.0000   0.0000   0.0000   0.0000   0.0000   0.0000   0.0000
     0.0000   0.0000   0.0000   0.0000   0.0000

          k = 0.0000 0.1667-0.5000 (  6298 PWs)   bands (ev):

  -112.3495-112.3495-112.3485-112.3485-112.3484-112.3483-112.3474-112.3473
   -66.5479 -66.5479 -66.5469 -66.5469 -66.5465 -66.5465 -66.5453 -66.5453
   -66.5400 -66.5400 -66.5387 -66.5387 -66.5385 -66.5385 -66.5374 -66.5374
   -66.5319 -66.5319 -66.5307 -66.5307 -66.5307 -66.5307 -66.5297 -66.5297
    -5.4063  -5.4063  -4.5358  -4.5358  -4.4116  -4.4116  -3.7582  -3.7582
     5.4231   5.4231   5.4562   5.4562   5.7404   5.7404   5.7532   5.7532
     5.7573   5.7574   6.0307   6.0307   6.2512   6.2513   6.2822   6.2822
     6.3282   6.3282   6.3600   6.3600   6.4754   6.4754   6.6041   6.6042
     6.6557   6.6557   6.7035   6.7036   6.7102   6.7102   6.7258   6.7258
     6.8687   6.8687   6.8803   6.8803   6.9989   6.9989   7.2011   7.2012
     7.8964   7.8964   7.9355   7.9355   8.2080   8.2080   9.2049   9.2049
     9.4154   9.4154   9.7060   9.7060   9.7851   9.7851  11.3118  11.3118
    11.4784  11.4784  11.8552  11.8552  12.1651  12.1651  12.2986  12.2986
    15.1065  15.1065  16.1701  16.1701  17.1870  17.1870  17.2592  17.2592
    20.1025  20.1025  20.2899  20.2899  20.3106  20.3106  20.3215  20.3215
    22.8693  22.8693  23.4728  23.4728  23.8007

     occupation numbers 
     1.0000   1.0000   1.0000   1.0000   1.0000   1.0000   1.0000   1.0000
     1.0000   1.0000   1.0000   1.0000   1.0000   1.0000   1.0000   1.0000
     1.0000   1.0000   1.0000   1.0000   1.0000   1.0000   1.0000   1.0000
     1.0000   1.0000   1.0000   1.0000   1.0000   1.0000   1.0000   1.0000
     1.0000   1.0000   1.0000   1.0000   1.0000   1.0000   1.0000   1.0000
     1.0000   1.0000   1.0000   1.0000   1.0000   1.0000   1.0000   1.0000
     1.0000   1.0000   1.0000   1.0000   1.0000   1.0000   1.0000   1.0000
     1.0000   1.0000   1.0000   1.0000   1.0000   1.0000   1.0000   1.0000
     1.0000   1.0000   1.0000   1.0000   1.0000   1.0000   1.0000   1.0000
     1.0000   1.0000   1.0000   1.0000   1.0000   1.0000   1.0000   1.0000
     1.0000   1.0000   1.0000   1.0000   1.0000   1.0000   1.0000   1.0000
     1.0000   1.0000   1.0000   1.0000   1.0000   1.0000   1.0000   1.0000
     1.0000   1.0000   1.0025   1.0025   1.0813   1.0813   0.8707   0.8707
     0.0000   0.0000   0.0000   0.0000   0.0000   0.0000   0.0000   0.0000
     0.0000   0.0000   0.0000   0.0000   0.0000   0.0000   0.0000   0.0000
     0.0000   0.0000   0.0000   0.0000   0.0000

          k = 0.0000 0.3333 0.3333 (  6270 PWs)   bands (ev):

  -112.3496-112.3490-112.3490-112.3484-112.3484-112.3479-112.3479-112.3473
   -66.5480 -66.5473 -66.5473 -66.5463 -66.5439 -66.5439 -66.5433 -66.5431
   -66.5426 -66.5426 -66.5419 -66.5417 -66.5356 -66.5352 -66.5347 -66.5347
   -66.5341 -66.5340 -66.5335 -66.5335 -66.5307 -66.5301 -66.5301 -66.5296
    -5.5073  -4.9502  -4.9502  -4.5181  -4.4605  -4.0988  -4.0988  -3.7059
     5.2347   5.4540   5.4540   5.6040   5.6239   5.7789   5.8693   5.8693
     5.9565   6.0251   6.0251   6.0754   6.1466   6.1466   6.1748   6.1764
     6.3134   6.4986   6.5001   6.5001   6.5215   6.5215   6.5279   6.6120
     6.6120   6.6557   6.6914   6.7401   6.7445   6.7446   6.8062   6.8114
     6.8744   6.9018   6.9412   6.9466   6.9466   6.9633   6.9633   7.0943
     7.9631   7.9631   7.9893   8.0643   8.3037   8.3037   8.7961   8.8417
     9.1158   9.1158   9.3872   9.8658  10.4106  10.4292  10.5931  10.5931
    11.2354  11.7399  11.8065  11.8065  11.9135  12.1599  12.1599  12.2510
    15.0263  16.4901  16.4901  16.6490  16.6490  16.8139  16.9789  17.8185
    19.4961  19.6629  19.8247  20.8457  20.8457  21.2235  21.2235  21.2358
    21.7455  21.7455  22.9967  23.5647  24.5758

     occupation numbers 
     1.0000   1.0000   1.0000   1.0000   1.0000   1.0000   1.0000   1.0000
     1.0000   1.0000   1.0000   1.0000   1.0000   1.0000   1.0000   1.0000
     1.0000   1.0000   1.0000   1.0000   1.0000   1.0000   1.0000   1.0000
     1.0000   1.0000   1.0000   1.0000   1.0000   1.0000   1.0000   1.0000
     1.0000   1.0000   1.0000   1.0000   1.0000   1.0000   1.0000   1.0000
     1.0000   1.0000   1.0000   1.0000   1.0000   1.0000   1.0000   1.0000
     1.0000   1.0000   1.0000   1.0000   1.0000   1.0000   1.0000   1.0000
     1.0000   1.0000   1.0000   1.0000   1.0000   1.0000   1.0000   1.0000
     1.0000   1.0000   1.0000   1.0000   1.0000   1.0000   1.0000   1.0000
     1.0000   1.0000   1.0000   1.0000   1.0000   1.0000   1.0000   1.0000
     1.0000   1.0000   1.0000   1.0000   1.0000   1.0000   1.0000   1.0000
     1.0000   1.0000   1.0000   1.0000   1.0000   1.0000   1.0000   1.0000
     1.0000   1.0002   1.0009   1.0009   1.0078   1.0823   1.0823   0.9904
     0.0000   0.0000   0.0000   0.0000   0.0000   0.0000   0.0000   0.0000
     0.0000   0.0000   0.0000   0.0000   0.0000   0.0000   0.0000   0.0000
     0.0000   0.0000   0.0000   0.0000   0.0000

          k = 0.0000 0.3333-0.5000 (  6282 PWs)   bands (ev):

  -112.3493-112.3493-112.3487-112.3487-112.3481-112.3481-112.3476-112.3476
   -66.5476 -66.5476 -66.5468 -66.5468 -66.5436 -66.5436 -66.5422 -66.5422
   -66.5397 -66.5397 -66.5389 -66.5389 -66.5383 -66.5382 -66.5376 -66.5376
   -66.5351 -66.5351 -66.5337 -66.5337 -66.5304 -66.5304 -66.5299 -66.5299
    -5.2414  -5.2414  -4.7416  -4.7416  -4.2851  -4.2851  -3.9092  -3.9092
     5.5771   5.5771   5.6607   5.6607   5.7544   5.7544   5.7806   5.7806
     5.8266   5.8266   6.0728   6.0728   6.1177   6.1177   6.3124   6.3124
     6.4390   6.4390   6.5020   6.5020   6.5160   6.5160   6.5632   6.5632
     6.6605   6.6605   6.6907   6.6907   6.7183   6.7183   6.7970   6.7970
     6.8402   6.8402   6.8661   6.8661   6.9338   6.9338   7.0210   7.0210
     8.0533   8.0533   8.1198   8.1199   8.3141   8.3141   8.8028   8.8028
     9.4969   9.4969   9.5464   9.5464   9.7370   9.7370  10.3635  10.3635
    11.4515  11.4515  11.8084  11.8084  11.9508  11.9508  12.2064  12.2064
    15.8621  15.8621  16.7854  16.7854  16.9727  16.9727  17.2952  17.2952
    20.2985  20.2985  20.3991  20.3991  20.5316  20.5316  21.2416  21.2416
    22.4465  22.4465  22.9004  22.9004  23.6457

     occupation numbers 
     1.0000   1.0000   1.0000   1.0000   1.0000   1.0000   1.0000   1.0000
     1.0000   1.0000   1.0000   1.0000   1.0000   1.0000   1.0000   1.0000
     1.0000   1.0000   1.0000   1.0000   1.0000   1.0000   1.0000   1.0000
     1.0000   1.0000   1.0000   1.0000   1.0000   1.0000   1.0000   1.0000
     1.0000   1.0000   1.0000   1.0000   1.0000   1.0000   1.0000   1.0000
     1.0000   1.0000   1.0000   1.0000   1.0000   1.0000   1.0000   1.0000
     1.0000   1.0000   1.0000   1.0000   1.0000   1.0000   1.0000   1.0000
     1.0000   1.0000   1.0000   1.0000   1.0000   1.0000   1.0000   1.0000
     1.0000   1.0000   1.0000   1.0000   1.0000   1.0000   1.0000   1.0000
     1.0000   1.0000   1.0000   1.0000   1.0000   1.0000   1.0000   1.0000
     1.0000   1.0000   1.0000   1.0000   1.0000   1.0000   1.0000   1.0000
     1.0000   1.0000   1.0000   1.0000   1.0000   1.0000   1.0000   1.0000
     1.0000   1.0000   1.0009   1.0009   1.0145   1.0145   1.0567   1.0567
     0.0000   0.0000   0.0000   0.0000   0.0000   0.0000   0.0000   0.0000
     0.0000   0.0000   0.0000   0.0000   0.0000   0.0000   0.0000   0.0000
     0.0000   0.0000   0.0000   0.0000   0.0000

          k = 0.0000-0.5000-0.5000 (  6256 PWs)   bands (ev):

  -112.3490-112.3490-112.3490-112.3490-112.3479-112.3479-112.3479-112.3478
   -66.5472 -66.5472 -66.5472 -66.5472 -66.5395 -66.5395 -66.5395 -66.5395
   -66.5391 -66.5391 -66.5391 -66.5391 -66.5380 -66.5380 -66.5380 -66.5380
   -66.5378 -66.5378 -66.5378 -66.5378 -66.5301 -66.5301 -66.5301 -66.5301
    -5.0016  -5.0016  -5.0016  -5.0016  -4.1032  -4.1032  -4.1032  -4.1032
     5.7084   5.7084   5.7084   5.7084   5.8063   5.8063   5.8063   5.8063
     5.8967   5.8967   5.8967   5.8967   6.2551   6.2551   6.2551   6.2552
     6.4945   6.4945   6.4945   6.4945   6.5854   6.5854   6.5854   6.5854
     6.7135   6.7135   6.7135   6.7135   6.7340   6.7340   6.7340   6.7340
     6.8648   6.8648   6.8648   6.8648   6.8738   6.8738   6.8738   6.8738
     8.3035   8.3035   8.3035   8.3035   8.4118   8.4118   8.4119   8.4119
     9.6262   9.6262   9.6262   9.6262   9.6542   9.6542   9.6542   9.6542
    11.5330  11.5330  11.5330  11.5330  12.0794  12.0794  12.0794  12.0794
    16.5242  16.5242  16.5242  16.5242  17.2030  17.2030  17.2030  17.2031
    20.4179  20.4179  20.4179  20.4179  21.2883  21.2883  21.2883  21.2883
    22.4629  22.4629  22.4629  22.4629  23.6712

     occupation numbers 
     1.0000   1.0000   1.0000   1.0000   1.0000   1.0000   1.0000   1.0000
     1.0000   1.0000   1.0000   1.0000   1.0000   1.0000   1.0000   1.0000
     1.0000   1.0000   1.0000   1.0000   1.0000   1.0000   1.0000   1.0000
     1.0000   1.0000   1.0000   1.0000   1.0000   1.0000   1.0000   1.0000
     1.0000   1.0000   1.0000   1.0000   1.0000   1.0000   1.0000   1.0000
     1.0000   1.0000   1.0000   1.0000   1.0000   1.0000   1.0000   1.0000
     1.0000   1.0000   1.0000   1.0000   1.0000   1.0000   1.0000   1.0000
     1.0000   1.0000   1.0000   1.0000   1.0000   1.0000   1.0000   1.0000
     1.0000   1.0000   1.0000   1.0000   1.0000   1.0000   1.0000   1.0000
     1.0000   1.0000   1.0000   1.0000   1.0000   1.0000   1.0000   1.0000
     1.0000   1.0000   1.0000   1.0000   1.0000   1.0000   1.0000   1.0000
     1.0000   1.0000   1.0000   1.0000   1.0000   1.0000   1.0000   1.0000
     1.0000   1.0000   1.0000   1.0000   1.0639   1.0639   1.0639   1.0639
     0.0000   0.0000   0.0000   0.0000   0.0000   0.0000   0.0000   0.0000
     0.0000   0.0000   0.0000   0.0000   0.0000   0.0000   0.0000   0.0000
     0.0000   0.0000   0.0000   0.0000   0.0000

          k = 0.1667 0.1667 0.1667 (  6298 PWs)   bands (ev):

  -112.3499-112.3489-112.3489-112.3489-112.3479-112.3479-112.3479-112.3469
   -66.5474 -66.5474 -66.5474 -66.5461 -66.5461 -66.5461 -66.5460 -66.5460
   -66.5460 -66.5448 -66.5447 -66.5447 -66.5324 -66.5321 -66.5321 -66.5314
   -66.5314 -66.5314 -66.5313 -66.5313 -66.5313 -66.5302 -66.5302 -66.5302
    -5.8142  -4.7980  -4.7980  -4.7980  -4.1467  -4.1467  -4.1467  -3.4438
     4.8590   4.8590   4.8590   5.4313   5.4313   5.6724   5.9845   5.9845
     6.0706   6.0706   6.0706   6.1211   6.1211   6.1211   6.4065   6.4065
     6.4065   6.4390   6.4390   6.4390   6.4799   6.4799   6.4799   6.5527
     6.5527   6.5527   6.7881   6.7881   6.7881   6.8729   6.9420   6.9420
     6.9933   6.9933   6.9933   7.0388   7.0388   7.0388   7.1678   7.1678
     7.8729   7.8729   7.8729   7.9700   7.9700   7.9700   8.3327   8.3327
     8.3327   9.6158  10.1291  10.8333  10.8333  11.0935  11.0935  11.6044
    11.6044  11.6044  12.1346  12.1346  12.1346  12.1755  12.1755  12.1755
    13.7040  15.7401  15.7401  15.7401  17.2577  17.2577  17.2577  17.3053
    18.6491  18.6491  19.7214  19.7214  19.7214  21.6726  21.6726  21.6726
    22.3005  22.3005  22.3005  23.7775  25.7398

     occupation numbers 
     1.0000   1.0000   1.0000   1.0000   1.0000   1.0000   1.0000   1.0000
     1.0000   1.0000   1.0000   1.0000   1.0000   1.0000   1.0000   1.0000
     1.0000   1.0000   1.0000   1.0000   1.0000   1.0000   1.0000   1.0000
     1.0000   1.0000   1.0000   1.0000   1.0000   1.0000   1.0000   1.0000
     1.0000   1.0000   1.0000   1.0000   1.0000   1.0000   1.0000   1.0000
     1.0000   1.0000   1.0000   1.0000   1.0000   1.0000   1.0000   1.0000
     1.0000   1.0000   1.0000   1.0000   1.0000   1.0000   1.0000   1.0000
     1.0000   1.0000   1.0000   1.0000   1.0000   1.0000   1.0000   1.0000
     1.0000   1.0000   1.0000   1.0000   1.0000   1.0000   1.0000   1.0000
     1.0000   1.0000   1.0000   1.0000   1.0000   1.0000   1.0000   1.0000
     1.0000   1.0000   1.0000   1.0000   1.0000   1.0000   1.0000   1.0000
     1.0000   1.0000   1.0000   1.0000   1.0000   1.0000   1.0000   1.0000
     1.0000   1.0000   1.0824   1.0824   1.0824   1.0780   1.0780   1.0780
     0.0000   0.0000   0.0000   0.0000   0.0000   0.0000   0.0000   0.0000
     0.0000   0.0000   0.0000   0.0000   0.0000   0.0000   0.0000   0.0000
     0.0000   0.0000   0.0000   0.0000   0.0000

          k = 0.1667 0.1667 0.3333 (  6288 PWs)   bands (ev):

  -112.3497-112.3491-112.3487-112.3487-112.3481-112.3481-112.3477-112.3471
   -66.5471 -66.5471 -66.5463 -66.5463 -66.5459 -66.5457 -66.5450 -66.5449
   -66.5442 -66.5429 -66.5429 -66.5417 -66.5355 -66.5344 -66.5344 -66.5333
   -66.5321 -66.5320 -66.5316 -66.5315 -66.5311 -66.5311 -66.5305 -66.5305
    -5.6257  -5.0437  -4.6713  -4.6713  -4.2964  -4.2964  -4.0121  -3.6081
     5.1393   5.1393   5.3361   5.5420   5.5744   5.8613   5.8613   5.9436
     5.9778   5.9961   6.0103   6.0868   6.1195   6.1950   6.1950   6.3637
     6.3637   6.3686   6.3686   6.4693   6.4814   6.4814   6.5126   6.6105
     6.6371   6.6371   6.6671   6.7661   6.7797   6.7797   6.8171   6.8708
     6.8708   6.9294   6.9294   6.9513   6.9758   6.9817   7.1116   7.1589
     7.9048   7.9048   7.9187   7.9723   7.9723   8.3680   8.8471   8.8471
     8.8829   8.9435   9.5519  10.2703  10.7474  10.7474  10.9746  11.0931
    11.3261  11.3967  11.8019  11.9476  12.1147  12.1147  12.1251  12.1251
    14.5686  15.9952  16.3106  16.4709  16.4709  16.9192  17.5060  17.5060
    19.2701  19.4808  19.9039  19.9039  21.1107  21.1288  21.1288  21.2525
    21.5659  22.6685  22.6685  24.5211  25.1824

     occupation numbers 
     1.0000   1.0000   1.0000   1.0000   1.0000   1.0000   1.0000   1.0000
     1.0000   1.0000   1.0000   1.0000   1.0000   1.0000   1.0000   1.0000
     1.0000   1.0000   1.0000   1.0000   1.0000   1.0000   1.0000   1.0000
     1.0000   1.0000   1.0000   1.0000   1.0000   1.0000   1.0000   1.0000
     1.0000   1.0000   1.0000   1.0000   1.0000   1.0000   1.0000   1.0000
     1.0000   1.0000   1.0000   1.0000   1.0000   1.0000   1.0000   1.0000
     1.0000   1.0000   1.0000   1.0000   1.0000   1.0000   1.0000   1.0000
     1.0000   1.0000   1.0000   1.0000   1.0000   1.0000   1.0000   1.0000
     1.0000   1.0000   1.0000   1.0000   1.0000   1.0000   1.0000   1.0000
     1.0000   1.0000   1.0000   1.0000   1.0000   1.0000   1.0000   1.0000
     1.0000   1.0000   1.0000   1.0000   1.0000   1.0000   1.0000   1.0000
     1.0000   1.0000   1.0000   1.0000   1.0000   1.0000   1.0000   1.0000
     1.0000   1.0000   1.0008   1.0138   1.0778   1.0778   1.0806   1.0806
     0.0000   0.0000   0.0000   0.0000   0.0000   0.0000   0.0000   0.0000
     0.0000   0.0000   0.0000   0.0000   0.0000   0.0000   0.0000   0.0000
     0.0000   0.0000   0.0000   0.0000   0.0000

          k = 0.1667 0.1667-0.5000 (  6300 PWs)   bands (ev):

  -112.3494-112.3494-112.3484-112.3484-112.3484-112.3484-112.3474-112.3474
   -66.5467 -66.5467 -66.5467 -66.5467 -66.5455 -66.5454 -66.5454 -66.5454
   -66.5399 -66.5399 -66.5386 -66.5386 -66.5386 -66.5386 -66.5375 -66.5375
   -66.5319 -66.5318 -66.5318 -66.5318 -66.5308 -66.5308 -66.5308 -66.5308
    -5.3486  -5.3486  -4.4896  -4.4896  -4.4896  -4.4896  -3.8174  -3.8174
     5.5235   5.5235   5.5235   5.5235   5.7229   5.7229   5.8076   5.8076
     5.8081   5.8081   6.0469   6.0469   6.2898   6.2898   6.2898   6.2898
     6.3489   6.3489   6.3840   6.3840   6.3840   6.3840   6.6598   6.6598
     6.6719   6.6719   6.7175   6.7176   6.7199   6.7199   6.7199   6.7199
     6.8577   6.8577   6.8577   6.8577   6.9662   6.9662   7.1425   7.1425
     7.9442   7.9442   7.9442   7.9442   8.2454   8.2454   8.9278   8.9278
     9.5701   9.5701   9.7231   9.7231   9.7231   9.7231  11.1462  11.1462
    11.4200  11.4200  11.6379  11.6379  12.1150  12.1150  12.1150  12.1150
    15.4397  15.4397  16.4081  16.4081  17.2103  17.2103  17.2103  17.2103
    20.2264  20.2264  20.4342  20.4342  20.4342  20.4342  20.5442  20.5442
    22.9086  22.9086  23.4696  23.4696  23.4696

     occupation numbers 
     1.0000   1.0000   1.0000   1.0000   1.0000   1.0000   1.0000   1.0000
     1.0000   1.0000   1.0000   1.0000   1.0000   1.0000   1.0000   1.0000
     1.0000   1.0000   1.0000   1.0000   1.0000   1.0000   1.0000   1.0000
     1.0000   1.0000   1.0000   1.0000   1.0000   1.0000   1.0000   1.0000
     1.0000   1.0000   1.0000   1.0000   1.0000   1.0000   1.0000   1.0000
     1.0000   1.0000   1.0000   1.0000   1.0000   1.0000   1.0000   1.0000
     1.0000   1.0000   1.0000   1.0000   1.0000   1.0000   1.0000   1.0000
     1.0000   1.0000   1.0000   1.0000   1.0000   1.0000   1.0000   1.0000
     1.0000   1.0000   1.0000   1.0000   1.0000   1.0000   1.0000   1.0000
     1.0000   1.0000   1.0000   1.0000   1.0000   1.0000   1.0000   1.0000
     1.0000   1.0000   1.0000   1.0000   1.0000   1.0000   1.0000   1.0000
     1.0000   1.0000   1.0000   1.0000   1.0000   1.0000   1.0000   1.0000
     1.0000   1.0000   1.0000   1.0000   1.0779   1.0779   1.0779   1.0779
     0.0000   0.0000   0.0000   0.0000   0.0000   0.0000   0.0000   0.0000
     0.0000   0.0000   0.0000   0.0000   0.0000   0.0000   0.0000   0.0000
     0.0000   0.0000   0.0000   0.0000   0.0000

          k = 0.1667 0.3333 0.3333 (  6277 PWs)   bands (ev):

  -112.3495-112.3489-112.3489-112.3485-112.3483-112.3479-112.3479-112.3474
   -66.5469 -66.5460 -66.5460 -66.5453 -66.5439 -66.5439 -66.5432 -66.5430
   -66.5426 -66.5426 -66.5421 -66.5419 -66.5355 -66.5351 -66.5346 -66.5346
   -66.5342 -66.5342 -66.5335 -66.5335 -66.5319 -66.5313 -66.5313 -66.5306
    -5.4471  -4.8999  -4.8999  -4.5434  -4.4702  -4.1640  -4.1640  -3.7682
     5.3825   5.5332   5.5332   5.6459   5.6703   5.8262   5.8665   5.8665
     6.0066   6.0832   6.1031   6.1031   6.1540   6.1540   6.1727   6.2612
     6.3430   6.4209   6.4546   6.4726   6.4727   6.4847   6.4847   6.6629
     6.6630   6.6630   6.7481   6.7621   6.7828   6.7839   6.7839   6.8248
     6.8613   6.8867   6.8978   6.9101   6.9101   6.9365   6.9366   7.0410
     7.9736   7.9836   7.9836   8.0389   8.1781   8.1781   8.7516   9.0105
     9.0272   9.2057   9.2057  10.1665  10.3835  10.5313  10.5640  10.5640
    11.0558  11.4039  11.7454  11.7454  11.8113  11.9168  11.9168  12.0620
    15.3203  16.6464  16.6464  16.7813  16.7813  16.8506  17.0258  17.5153
    19.7639  19.9918  20.2541  20.9415  20.9415  21.2893  21.3239  21.3239
    21.8821  21.8821  22.7890  23.6760  24.5459

     occupation numbers 
     1.0000   1.0000   1.0000   1.0000   1.0000   1.0000   1.0000   1.0000
     1.0000   1.0000   1.0000   1.0000   1.0000   1.0000   1.0000   1.0000
     1.0000   1.0000   1.0000   1.0000   1.0000   1.0000   1.0000   1.0000
     1.0000   1.0000   1.0000   1.0000   1.0000   1.0000   1.0000   1.0000
     1.0000   1.0000   1.0000   1.0000   1.0000   1.0000   1.0000   1.0000
     1.0000   1.0000   1.0000   1.0000   1.0000   1.0000   1.0000   1.0000
     1.0000   1.0000   1.0000   1.0000   1.0000   1.0000   1.0000   1.0000
     1.0000   1.0000   1.0000   1.0000   1.0000   1.0000   1.0000   1.0000
     1.0000   1.0000   1.0000   1.0000   1.0000   1.0000   1.0000   1.0000
     1.0000   1.0000   1.0000   1.0000   1.0000   1.0000   1.0000   1.0000
     1.0000   1.0000   1.0000   1.0000   1.0000   1.0000   1.0000   1.0000
     1.0000   1.0000   1.0000   1.0000   1.0000   1.0000   1.0000   1.0000
     1.0000   1.0000   1.0002   1.0002   1.0010   1.0083   1.0083   1.0558
     0.0000   0.0000   0.0000   0.0000   0.0000   0.0000   0.0000   0.0000
     0.0000   0.0000   0.0000   0.0000   0.0000   0.0000   0.0000   0.0000
     0.0000   0.0000   0.0000   0.0000   0.0000

          k = 0.1667 0.3333-0.5000 (  6292 PWs)   bands (ev):

  -112.3492-112.3492-112.3486-112.3486-112.3482-112.3482-112.3476-112.3476
   -66.5465 -66.5465 -66.5457 -66.5457 -66.5435 -66.5435 -66.5423 -66.5423
   -66.5397 -66.5397 -66.5389 -66.5388 -66.5384 -66.5384 -66.5377 -66.5377
   -66.5350 -66.5350 -66.5339 -66.5338 -66.5317 -66.5316 -66.5310 -66.5310
    -5.1858  -5.1858  -4.6924  -4.6924  -4.3597  -4.3597  -3.9730  -3.9730
     5.6797   5.6797   5.7319   5.7319   5.7718   5.7718   5.8518   5.8519
     5.8943   5.8943   6.1017   6.1017   6.1210   6.1210   6.2888   6.2888
     6.4436   6.4436   6.4564   6.4564   6.5748   6.5748   6.5763   6.5763
     6.6890   6.6890   6.6932   6.6932   6.7194   6.7194   6.8097   6.8097
     6.8224   6.8224   6.8310   6.8310   6.8873   6.8873   6.9827   6.9828
     8.0477   8.0477   8.0615   8.0615   8.3086   8.3086   8.5367   8.5367
     9.6314   9.6314   9.7055   9.7055   9.7607   9.7607  10.4131  10.4131
    11.3322  11.3322  11.6540  11.6540  11.7149  11.7149  11.9825  11.9825
    16.0703  16.0703  16.8783  16.8783  17.0163  17.0163  17.2430  17.2430
    20.4867  20.4867  20.6550  20.6550  20.8335  20.8335  21.3772  21.3772
    22.5730  22.5730  22.9786  22.9786  23.4516

     occupation numbers 
     1.0000   1.0000   1.0000   1.0000   1.0000   1.0000   1.0000   1.0000
     1.0000   1.0000   1.0000   1.0000   1.0000   1.0000   1.0000   1.0000
     1.0000   1.0000   1.0000   1.0000   1.0000   1.0000   1.0000   1.0000
     1.0000   1.0000   1.0000   1.0000   1.0000   1.0000   1.0000   1.0000
     1.0000   1.0000   1.0000   1.0000   1.0000   1.0000   1.0000   1.0000
     1.0000   1.0000   1.0000   1.0000   1.0000   1.0000   1.0000   1.0000
     1.0000   1.0000   1.0000   1.0000   1.0000   1.0000   1.0000   1.0000
     1.0000   1.0000   1.0000   1.0000   1.0000   1.0000   1.0000   1.0000
     1.0000   1.0000   1.0000   1.0000   1.0000   1.0000   1.0000   1.0000
     1.0000   1.0000   1.0000   1.0000   1.0000   1.0000   1.0000   1.0000
     1.0000   1.0000   1.0000   1.0000   1.0000   1.0000   1.0000   1.0000
     1.0000   1.0000   1.0000   1.0000   1.0000   1.0000   1.0000   1.0000
     1.0000   1.0000   1.0000   1.0000   1.0001   1.0001   1.0230   1.0230
     0.0000   0.0000   0.0000   0.0000   0.0000   0.0000   0.0000   0.0000
     0.0000   0.0000   0.0000   0.0000   0.0000   0.0000   0.0000   0.0000
     0.0000   0.0000   0.0000   0.0000   0.0000

          k = 0.1667-0.5000-0.5000 (  6276 PWs)   bands (ev):

  -112.3489-112.3489-112.3489-112.3489-112.3479-112.3479-112.3479-112.3479
   -66.5460 -66.5460 -66.5460 -66.5460 -66.5394 -66.5394 -66.5394 -66.5394
   -66.5391 -66.5391 -66.5391 -66.5391 -66.5381 -66.5381 -66.5381 -66.5381
   -66.5380 -66.5380 -66.5380 -66.5380 -66.5314 -66.5314 -66.5314 -66.5313
    -4.9489  -4.9489  -4.9489  -4.9489  -4.1727  -4.1727  -4.1727  -4.1727
     5.7991   5.7991   5.7991   5.7991   5.8789   5.8789   5.8789   5.8789
     5.9277   5.9277   5.9277   5.9277   6.2451   6.2451   6.2451   6.2452
     6.5076   6.5076   6.5076   6.5076   6.5862   6.5863   6.5863   6.5863
     6.7100   6.7100   6.7100   6.7100   6.7694   6.7694   6.7694   6.7694
     6.8219   6.8219   6.8220   6.8220   6.8387   6.8387   6.8387   6.8387
     8.2408   8.2408   8.2408   8.2409   8.2540   8.2540   8.2540   8.2540
     9.7707   9.7707   9.7707   9.7707   9.7835   9.7835   9.7835   9.7835
    11.3984  11.3984  11.3984  11.3984  11.8101  11.8101  11.8101  11.8101
    16.6321  16.6321  16.6321  16.6321  17.1792  17.1792  17.1792  17.1792
    20.7548  20.7548  20.7548  20.7548  21.4846  21.4846  21.4846  21.4846
    22.6231  22.6231  22.6231  22.6231  23.5497

     occupation numbers 
     1.0000   1.0000   1.0000   1.0000   1.0000   1.0000   1.0000   1.0000
     1.0000   1.0000   1.0000   1.0000   1.0000   1.0000   1.0000   1.0000
     1.0000   1.0000   1.0000   1.0000   1.0000   1.0000   1.0000   1.0000
     1.0000   1.0000   1.0000   1.0000   1.0000   1.0000   1.0000   1.0000
     1.0000   1.0000   1.0000   1.0000   1.0000   1.0000   1.0000   1.0000
     1.0000   1.0000   1.0000   1.0000   1.0000   1.0000   1.0000   1.0000
     1.0000   1.0000   1.0000   1.0000   1.0000   1.0000   1.0000   1.0000
     1.0000   1.0000   1.0000   1.0000   1.0000   1.0000   1.0000   1.0000
     1.0000   1.0000   1.0000   1.0000   1.0000   1.0000   1.0000   1.0000
     1.0000   1.0000   1.0000   1.0000   1.0000   1.0000   1.0000   1.0000
     1.0000   1.0000   1.0000   1.0000   1.0000   1.0000   1.0000   1.0000
     1.0000   1.0000   1.0000   1.0000   1.0000   1.0000   1.0000   1.0000
     1.0000   1.0000   1.0000   1.0000   1.0009   1.0009   1.0009   1.0009
     0.0000   0.0000   0.0000   0.0000   0.0000   0.0000   0.0000   0.0000
     0.0000   0.0000   0.0000   0.0000   0.0000   0.0000   0.0000   0.0000
     0.0000   0.0000   0.0000   0.0000   0.0000

          k = 0.3333 0.3333 0.3333 (  6292 PWs)   bands (ev):

  -112.3493-112.3487-112.3487-112.3487-112.3481-112.3481-112.3481-112.3476
   -66.5436 -66.5436 -66.5436 -66.5430 -66.5430 -66.5430 -66.5428 -66.5428
   -66.5428 -66.5424 -66.5422 -66.5422 -66.5355 -66.5351 -66.5351 -66.5344
   -66.5344 -66.5344 -66.5343 -66.5343 -66.5343 -66.5338 -66.5338 -66.5338
    -5.2769  -4.7583  -4.7583  -4.7583  -4.3352  -4.3352  -4.3352  -3.9315
     5.7324   5.7324   5.7324   5.7683   5.7683   5.8928   5.8928   5.8928
     6.1044   6.1044   6.1586   6.1586   6.1586   6.1955   6.1955   6.1955
     6.4366   6.4366   6.4366   6.4755   6.4755   6.4755   6.4910   6.6553
     6.7370   6.7370   6.7370   6.7493   6.7493   6.8264   6.8264   6.8264
     6.8324   6.8324   6.8324   6.8498   6.8498   6.8498   6.8867   6.8867
     8.0129   8.0129   8.0129   8.0132   8.0132   8.0132   8.5179   8.5747
     9.4433   9.4433   9.4433  10.3498  10.3498  10.3498  10.5957  10.5957
    10.8043  10.8043  11.5374  11.5374  11.5374  11.6030  11.6030  11.6030
    15.9019  16.9419  16.9419  16.9419  17.0068  17.0068  17.0068  17.0766
    20.4624  20.4624  21.3004  21.3004  21.3004  21.5426  21.5426  21.5426
    22.2021  22.2021  22.2021  23.9461  23.9461

     occupation numbers 
     1.0000   1.0000   1.0000   1.0000   1.0000   1.0000   1.0000   1.0000
     1.0000   1.0000   1.0000   1.0000   1.0000   1.0000   1.0000   1.0000
     1.0000   1.0000   1.0000   1.0000   1.0000   1.0000   1.0000   1.0000
     1.0000   1.0000   1.0000   1.0000   1.0000   1.0000   1.0000   1.0000
     1.0000   1.0000   1.0000   1.0000   1.0000   1.0000   1.0000   1.0000
     1.0000   1.0000   1.0000   1.0000   1.0000   1.0000   1.0000   1.0000
     1.0000   1.0000   1.0000   1.0000   1.0000   1.0000   1.0000   1.0000
     1.0000   1.0000   1.0000   1.0000   1.0000   1.0000   1.0000   1.0000
     1.0000   1.0000   1.0000   1.0000   1.0000   1.0000   1.0000   1.0000
     1.0000   1.0000   1.0000   1.0000   1.0000   1.0000   1.0000   1.0000
     1.0000   1.0000   1.0000   1.0000   1.0000   1.0000   1.0000   1.0000
     1.0000   1.0000   1.0000   1.0000   1.0000   1.0000   1.0000   1.0000
     1.0000   1.0000   1.0000   1.0000   1.0000   1.0000   1.0000   1.0000
     0.0000   0.0000   0.0000   0.0000   0.0000   0.0000   0.0000   0.0000
     0.0000   0.0000   0.0000   0.0000   0.0000   0.0000   0.0000   0.0000
     0.0000   0.0000   0.0000   0.0000   0.0000

[...]
     1.0000   1.0000   1.0000   1.0000   1.0000   1.0000   1.0000   1.0000
     1.0000   1.0000   1.0000   1.0000   1.0000   1.0000   1.0000   1.0000
     1.0000   1.0000   1.0000   1.0000   1.0000   1.0000   1.0000   1.0000
     1.0000   1.0000   1.0000   1.0000   1.0000   1.0000   1.0000   1.0000
     1.0000   1.0000   1.0000   1.0000   1.0000   1.0000   1.0000   1.0000
     1.0000   1.0000   1.0000   1.0000   1.0000   1.0000   1.0000   1.0000
     1.0000   1.0000   1.0000   1.0000   1.0000   1.0000   1.0000   1.0000
     1.0000   1.0000   1.0000   1.0000   1.0000   1.0000   1.0000   1.0000
     1.0000   1.0000   1.0000   1.0000   1.0000   1.0000   1.0000   1.0000
     1.0000   1.0000   1.0000   1.0000   1.0000   1.0000   1.0000   1.0000
     0.0000   0.0000   0.0000   0.0000   0.0000   0.0000   0.0000   0.0000
     0.0000   0.0000   0.0000   0.0000   0.0000   0.0000   0.0000   0.0000
     0.0000   0.0000   0.0000   0.0000   0.0000

          k =-0.5010-0.5010-0.5010 (  6152 PWs)   bands (ev):

  -112.2405-112.2405-112.2405-112.2405-112.2405-112.2405-112.2405-112.2405
   -66.4311 -66.4311 -66.4311 -66.4311 -66.4311 -66.4311 -66.4311 -66.4311
   -66.4308 -66.4308 -66.4308 -66.4308 -66.4308 -66.4308 -66.4308 -66.4308
   -66.4308 -66.4308 -66.4308 -66.4308 -66.4308 -66.4308 -66.4308 -66.4308
    -4.5059  -4.5059  -4.5059  -4.5059  -4.5059  -4.5059  -4.5059  -4.5059
     6.2141   6.2141   6.2141   6.2141   6.2141   6.2141   6.2141   6.2141
     6.2141   6.2141   6.2141   6.2141   6.2141   6.2141   6.2141   6.2141
     6.7347   6.7347   6.7347   6.7347   6.7347   6.7347   6.7347   6.7347
     6.7347   6.7347   6.7347   6.7347   6.7347   6.7347   6.7347   6.7347
     6.9115   6.9115   6.9115   6.9115   6.9115   6.9115   6.9115   6.9115
     8.0263   8.0263   8.0263   8.0263   8.0263   8.0263   8.0263   8.0263
    10.6811  10.6811  10.6811  10.6811  10.6811  10.6811  10.6811  10.6811
    10.6811  10.6811  10.6811  10.6811  10.6811  10.6811  10.6811  10.6811
    17.1539  17.1539  17.1539  17.1539  17.1539  17.1539  17.1539  17.1539
    22.7752  22.7752  22.7752  22.7752  22.7752  22.7752  22.7752  22.7752
    22.7752  22.7752  22.7752  22.7752  22.7752

     occupation numbers 
     1.0000   1.0000   1.0000   1.0000   1.0000   1.0000   1.0000   1.0000
     1.0000   1.0000   1.0000   1.0000   1.0000   1.0000   1.0000   1.0000
     1.0000   1.0000   1.0000   1.0000   1.0000   1.0000   1.0000   1.0000
     1.0000   1.0000   1.0000   1.0000   1.0000   1.0000   1.0000   1.0000
     1.0000   1.0000   1.0000   1.0000   1.0000   1.0000   1.0000   1.0000
     1.0000   1.0000   1.0000   1.0000   1.0000   1.0000   1.0000   1.0000
     1.0000   1.0000   1.0000   1.0000   1.0000   1.0000   1.0000   1.0000
     1.0000   1.0000   1.0000   1.0000   1.0000   1.0000   1.0000   1.0000
     1.0000   1.0000   1.0000   1.0000   1.0000   1.0000   1.0000   1.0000
     1.0000   1.0000   1.0000   1.0000   1.0000   1.0000   1.0000   1.0000
     1.0000   1.0000   1.0000   1.0000   1.0000   1.0000   1.0000   1.0000
     1.0000   1.0000   1.0000   1.0000   1.0000   1.0000   1.0000   1.0000
     1.0000   1.0000   1.0000   1.0000   1.0000   1.0000   1.0000   1.0000
     0.0000   0.0000   0.0000   0.0000   0.0000   0.0000   0.0000   0.0000
     0.0000   0.0000   0.0000   0.0000   0.0000   0.0000   0.0000   0.0000
     0.0000   0.0000   0.0000   0.0000   0.0000

     the Fermi energy is    12.5386 ev

!    total energy              =   -4025.43146674 Ry
     estimated scf accuracy    <          2.2E-10 Ry
     smearing contrib. (-TS)   =       0.00914641 Ry
     internal energy E=F+TS    =   -4025.44061315 Ry

     The total energy is F=E-TS. E is the sum of the following terms:
     one-electron contribution =   -2817.55976456 Ry
     hartree contribution      =    1518.61854456 Ry
     xc contribution           =    -397.64546228 Ry
     ewald contribution        =   -2252.60723127 Ry
     one-center paw contrib.   =     -76.24669959 Ry
      -> PAW hartree energy AE =     204.89968079 Ry
      -> PAW hartree energy PS =    -203.98759257 Ry
      -> PAW xc energy AE      =    -132.76273923 Ry
      -> PAW xc energy PS      =      55.60395143 Ry
      -> total E_H with PAW    =    1519.53063277 Ry
      -> total E_XC with PAW   =    -474.80425009 Ry

     convergence has been achieved in  11 iterations

     Forces acting on atoms (cartesian axes, Ry/au):

     atom    1 type  2   force =     0.00000000    0.00000000    0.00000000
     atom    2 type  1   force =     0.00000007    0.00000007    0.00000007
     atom    3 type  2   force =     0.00000000    0.00000000    0.00000000
     atom    4 type  1   force =     0.00000007    0.00000007   -0.00000007
     atom    5 type  2   force =     0.00000000    0.00000000    0.00000000
     atom    6 type  1   force =     0.00000007   -0.00000007    0.00000007
     atom    7 type  2   force =     0.00000000    0.00000000    0.00000000
     atom    8 type  1   force =     0.00000007   -0.00000007   -0.00000007
     atom    9 type  2   force =     0.00000000    0.00000000    0.00000000
     atom   10 type  1   force =    -0.00000007    0.00000007    0.00000007
     atom   11 type  2   force =     0.00000000    0.00000000    0.00000000
     atom   12 type  1   force =    -0.00000007    0.00000007   -0.00000007
     atom   13 type  2   force =     0.00000000    0.00000000    0.00000000
     atom   14 type  1   force =    -0.00000007   -0.00000007    0.00000007
     atom   15 type  2   force =     0.00000000    0.00000000    0.00000000
     atom   16 type  1   force =    -0.00000007   -0.00000007   -0.00000007
     The non-local contrib.  to forces
     atom    1 type  2   force =     0.00000000    0.00000000    0.00000000
     atom    2 type  1   force =     0.00000007    0.00000007    0.00000007
     atom    3 type  2   force =     0.00000000    0.00000000    0.00000000
     atom    4 type  1   force =     0.00000007    0.00000007   -0.00000007
     atom    5 type  2   force =     0.00000000    0.00000000    0.00000000
     atom    6 type  1   force =     0.00000007   -0.00000007    0.00000007
     atom    7 type  2   force =     0.00000000    0.00000000    0.00000000
     atom    8 type  1   force =     0.00000007   -0.00000007   -0.00000007
     atom    9 type  2   force =     0.00000000    0.00000000    0.00000000
     atom   10 type  1   force =    -0.00000007    0.00000007    0.00000007
     atom   11 type  2   force =     0.00000000    0.00000000    0.00000000
     atom   12 type  1   force =    -0.00000007    0.00000007   -0.00000007
     atom   13 type  2   force =     0.00000000    0.00000000    0.00000000
     atom   14 type  1   force =    -0.00000007   -0.00000007    0.00000007
     atom   15 type  2   force =     0.00000000    0.00000000    0.00000000
     atom   16 type  1   force =    -0.00000007   -0.00000007   -0.00000007
     The ionic contribution  to forces
     atom    1 type  2   force =    -0.00000000   -0.00000000   -0.00000000
     atom    2 type  1   force =     0.00000222    0.00000222    0.00000222
     atom    3 type  2   force =    -0.00000000   -0.00000000    0.00000000
     atom    4 type  1   force =     0.00000222    0.00000222   -0.00000222
     atom    5 type  2   force =    -0.00000000    0.00000000   -0.00000000
     atom    6 type  1   force =     0.00000222   -0.00000222    0.00000222
     atom    7 type  2   force =    -0.00000000    0.00000000    0.00000000
     atom    8 type  1   force =     0.00000222   -0.00000222   -0.00000222
     atom    9 type  2   force =     0.00000000   -0.00000000   -0.00000000
     atom   10 type  1   force =    -0.00000222    0.00000222    0.00000222
     atom   11 type  2   force =     0.00000000   -0.00000000    0.00000000
     atom   12 type  1   force =    -0.00000222    0.00000222   -0.00000222
     atom   13 type  2   force =     0.00000000    0.00000000   -0.00000000
     atom   14 type  1   force =    -0.00000222   -0.00000222    0.00000222
     atom   15 type  2   force =     0.00000000    0.00000000    0.00000000
     atom   16 type  1   force =    -0.00000222   -0.00000222   -0.00000222
     The local contribution  to forces
     atom    1 type  2   force =    -0.00000000    0.00000000    0.00000000
     atom    2 type  1   force =    -0.00000239   -0.00000239   -0.00000239
     atom    3 type  2   force =    -0.00000000    0.00000000   -0.00000000
     atom    4 type  1   force =    -0.00000239   -0.00000239    0.00000239
     atom    5 type  2   force =    -0.00000000   -0.00000000    0.00000000
     atom    6 type  1   force =    -0.00000239    0.00000239   -0.00000239
     atom    7 type  2   force =    -0.00000000   -0.00000000   -0.00000000
     atom    8 type  1   force =    -0.00000239    0.00000239    0.00000239
     atom    9 type  2   force =    -0.00000000    0.00000000    0.00000000
     atom   10 type  1   force =     0.00000239   -0.00000239   -0.00000239
     atom   11 type  2   force =    -0.00000000    0.00000000   -0.00000000
     atom   12 type  1   force =     0.00000239   -0.00000239    0.00000239
     atom   13 type  2   force =    -0.00000000   -0.00000000    0.00000000
     atom   14 type  1   force =     0.00000239    0.00000239   -0.00000239
     atom   15 type  2   force =    -0.00000000   -0.00000000   -0.00000000
     atom   16 type  1   force =     0.00000239    0.00000239    0.00000239
     The core correction contribution to forces
     atom    1 type  2   force =     0.00000000    0.00000000    0.00000000
     atom    2 type  1   force =    -0.00000000   -0.00000000   -0.00000000
     atom    3 type  2   force =     0.00000000    0.00000000    0.00000000
     atom    4 type  1   force =    -0.00000000   -0.00000000    0.00000000
     atom    5 type  2   force =     0.00000000    0.00000000    0.00000000
     atom    6 type  1   force =    -0.00000000    0.00000000   -0.00000000
     atom    7 type  2   force =     0.00000000    0.00000000    0.00000000
     atom    8 type  1   force =    -0.00000000    0.00000000    0.00000000
     atom    9 type  2   force =     0.00000000    0.00000000    0.00000000
     atom   10 type  1   force =     0.00000000   -0.00000000   -0.00000000
     atom   11 type  2   force =     0.00000000    0.00000000    0.00000000
     atom   12 type  1   force =     0.00000000   -0.00000000    0.00000000
     atom   13 type  2   force =     0.00000000    0.00000000    0.00000000
     atom   14 type  1   force =     0.00000000    0.00000000   -0.00000000
     atom   15 type  2   force =     0.00000000    0.00000000    0.00000000
     atom   16 type  1   force =     0.00000000    0.00000000    0.00000000
     The Hubbard contrib.    to forces
     atom    1 type  2   force =     0.00000000    0.00000000    0.00000000
     atom    2 type  1   force =     0.00000000    0.00000000    0.00000000
     atom    3 type  2   force =     0.00000000    0.00000000    0.00000000
     atom    4 type  1   force =     0.00000000    0.00000000    0.00000000
     atom    5 type  2   force =     0.00000000    0.00000000    0.00000000
     atom    6 type  1   force =     0.00000000    0.00000000    0.00000000
     atom    7 type  2   force =     0.00000000    0.00000000    0.00000000
     atom    8 type  1   force =     0.00000000    0.00000000    0.00000000
     atom    9 type  2   force =     0.00000000    0.00000000    0.00000000
     atom   10 type  1   force =     0.00000000    0.00000000    0.00000000
     atom   11 type  2   force =     0.00000000    0.00000000    0.00000000
     atom   12 type  1   force =     0.00000000    0.00000000    0.00000000
     atom   13 type  2   force =     0.00000000    0.00000000    0.00000000
     atom   14 type  1   force =     0.00000000    0.00000000    0.00000000
     atom   15 type  2   force =     0.00000000    0.00000000    0.00000000
     atom   16 type  1   force =     0.00000000    0.00000000    0.00000000
     The SCF correction term to forces
     atom    1 type  2   force =    -0.00000000   -0.00000000   -0.00000000
     atom    2 type  1   force =     0.00000016    0.00000016    0.00000016
     atom    3 type  2   force =    -0.00000000   -0.00000000    0.00000000
     atom    4 type  1   force =     0.00000016    0.00000016   -0.00000016
     atom    5 type  2   force =    -0.00000000    0.00000000    0.00000000
     atom    6 type  1   force =     0.00000016   -0.00000016    0.00000016
     atom    7 type  2   force =    -0.00000000    0.00000000    0.00000000
     atom    8 type  1   force =     0.00000016   -0.00000016   -0.00000016
     atom    9 type  2   force =     0.00000000    0.00000000   -0.00000000
     atom   10 type  1   force =    -0.00000016    0.00000016    0.00000016
     atom   11 type  2   force =     0.00000000    0.00000000   -0.00000000
     atom   12 type  1   force =    -0.00000016    0.00000016   -0.00000016
     atom   13 type  2   force =     0.00000000   -0.00000000   -0.00000000
     atom   14 type  1   force =    -0.00000016   -0.00000016    0.00000016
     atom   15 type  2   force =     0.00000000   -0.00000000   -0.00000000
     atom   16 type  1   force =    -0.00000016   -0.00000016   -0.00000016

     Total force =     0.000000     Total SCF correction =     0.000001
     SCF correction compared to forces is large: reduce conv_thr to get better values


     Computing stress (Cartesian axis) and pressure

          total   stress  (Ry/bohr**3)                   (kbar)     P=       -0.63
  -0.00000426   0.00000000   0.00000000           -0.63        0.00        0.00
   0.00000000  -0.00000426   0.00000000            0.00       -0.63        0.00
   0.00000000   0.00000000  -0.00000426            0.00        0.00       -0.63

     kinetic stress (kbar)  42714.36      0.00      0.00
                                0.00  42714.36      0.00
                                0.00      0.00  42714.36

     local   stress (kbar)  10445.85      0.00      0.00
                                0.00  10445.85     -0.00
                                0.00     -0.00  10445.85

     nonloc. stress (kbar)   -950.81      0.00      0.00
                                0.00   -950.81      0.00
                                0.00      0.00   -950.81

     hartree stress (kbar)  71133.65     -0.00     -0.00
                               -0.00  71133.65      0.00
                               -0.00      0.00  71133.65

     exc-cor stress (kbar) -17351.61     -0.00     -0.00
                               -0.00 -17351.61     -0.00
                               -0.00     -0.00 -17351.61

     corecor stress (kbar)   -477.63     -0.00     -0.00
                               -0.00   -477.63     -0.00
                               -0.00     -0.00   -477.63

     ewald   stress (kbar)-105514.44      0.00     -0.00
                                0.00-105514.44     -0.00
                               -0.00     -0.00-105514.44

     hubbard stress (kbar)      0.00      0.00      0.00
                                0.00      0.00      0.00
                                0.00      0.00      0.00

     DFT-D   stress (kbar)      0.00      0.00      0.00
                                0.00      0.00      0.00
                                0.00      0.00      0.00

     XDM     stress (kbar)      0.00      0.00      0.00
                                0.00      0.00      0.00
                                0.00      0.00      0.00

     dft-nl  stress (kbar)      0.00      0.00      0.00
                                0.00      0.00      0.00
                                0.00      0.00      0.00

     TS-vdW  stress (kbar)      0.00      0.00      0.00
                                0.00      0.00      0.00
                                0.00      0.00      0.00

     MDB     stress (kbar)      0.00      0.00      0.00
                                0.00      0.00      0.00
                                0.00      0.00      0.00

     3D-RISM stress (kbar)      0.00      0.00      0.00
                                0.00      0.00      0.00
                                0.00      0.00      0.00


     Writing all to output data dir ./temp_cubic/aiida.save/ :
     XML data file, charge density, pseudopotentials, collected wavefunctions

     init_run     :    419.15s CPU     51.36s WALL (       2 calls)
     electrons    :  32688.52s CPU   3288.97s WALL (       4 calls)
     update_pot   :      5.36s CPU      0.33s WALL (       2 calls)
     forces       :    359.96s CPU     64.75s WALL (       4 calls)
     stress       :    978.33s CPU     62.99s WALL (       4 calls)

     Called by init_run:
     wfcinit      :    399.39s CPU     48.95s WALL (       2 calls)
     wfcinit:atom :      4.03s CPU      0.21s WALL (      40 calls)
     wfcinit:wfcr :    378.60s CPU     47.08s WALL (      40 calls)
     potinit      :     12.07s CPU      0.62s WALL (       2 calls)
     hinit0       :      2.94s CPU      0.56s WALL (       2 calls)

     Called by electrons:
     c_bands      :  20965.54s CPU   2663.98s WALL (      32 calls)
     sum_band     :  11446.79s CPU    597.53s WALL (      32 calls)
     v_of_rho     :     40.48s CPU      2.55s WALL (      34 calls)
     v_h          :      6.06s CPU      0.43s WALL (      34 calls)
     v_xc         :     40.10s CPU      2.56s WALL (      42 calls)
     newd         :     64.11s CPU     19.23s WALL (      34 calls)
     PAW_pot      :    174.95s CPU      7.38s WALL (      36 calls)
     mix_rho      :     15.11s CPU      0.75s WALL (      32 calls)

     Called by c_bands:
     init_us_2    :    181.00s CPU     14.74s WALL (    1520 calls)
     cegterg      :  20827.95s CPU   2645.37s WALL (     640 calls)

     Called by sum_band:
     sum_band:wei :      0.06s CPU      0.06s WALL (      32 calls)
     sum_band:loo :  11410.39s CPU    578.74s WALL (      32 calls)
     sum_band:buf :     22.72s CPU      1.20s WALL (     640 calls)
     sum_band:ini :     85.17s CPU      4.12s WALL (     640 calls)
     sum_band:cal :    333.16s CPU    104.57s WALL (     680 calls)
     sum_band:bec :   1257.52s CPU     62.98s WALL (     680 calls)
     addusdens    :     31.16s CPU     17.94s WALL (      32 calls)
                                        0.00s GPU  (      32 calls)
     addusd:skk   :      4.61s CPU      0.23s WALL (      64 calls)
                                        0.00s GPU  (      64 calls)

     Called by *egterg:
     cdiaghg      :     85.78s CPU     52.53s WALL (    2252 calls)
     cegterg:over :    332.63s CPU    295.09s WALL (    1692 calls)
     cegterg:upda :   1028.10s CPU    211.61s WALL (    1692 calls)
     cegterg:last :    500.96s CPU    501.00s WALL (    1335 calls)
     h_psi        :  17679.67s CPU   1201.90s WALL (    2372 calls)
     s_psi        :    999.72s CPU    269.20s WALL (    2372 calls)
     g_psi        :     87.84s CPU     10.12s WALL (    1692 calls)

     Called by h_psi:
     h_psi:calbec :   1008.76s CPU    253.86s WALL (    2372 calls)
     vloc_psi     :  16206.64s CPU    683.22s WALL (    2372 calls)
     add_vuspsi   :    277.80s CPU    255.13s WALL (    2372 calls)

     General routines
     calbec       :   1526.35s CPU    419.71s WALL (    3452 calls)
     fft          :     42.23s CPU      2.36s WALL (     538 calls)
     ffts         :      1.95s CPU      0.08s WALL (      66 calls)
     fftw         :   8645.62s CPU    367.51s WALL (  488360 calls)
     interpolate  :      6.77s CPU      0.26s WALL (      34 calls)

     Parallel routines

     PAW routines
     PAW_pot      :    174.95s CPU      7.38s WALL (      36 calls)
     PAW_symme    :      0.06s CPU      0.01s WALL (      68 calls)

     PWSCF        :      9h35m CPU  58m 0.14s WALL


   This run was terminated on:  20:57:35   8Jun2024            

=------------------------------------------------------------------------------=
   JOB DONE.
=------------------------------------------------------------------------------=
