
     Program PWSCF v.7.3.1 starts on 13Jun2024 at 17:21: 9 

     This program is part of the open-source Quantum ESPRESSO suite
     for quantum simulation of materials; please cite
         "P. Giannozzi et al., J. Phys.:Condens. Matter 21 395502 (2009);
         "P. Giannozzi et al., J. Phys.:Condens. Matter 29 465901 (2017);
         "P. Giannozzi et al., J. Chem. Phys. 152 154105 (2020);
          URL http://www.quantum-espresso.org", 
     in publications or presentations arising from this work. More details at
     http://www.quantum-espresso.org/quote

     Parallel version (MPI & OpenMP), running on      24 processor cores
     Number of MPI processes:                 1
     Threads/MPI process:                    24

     MPI processes distributed on     1 nodes
     4917 MiB available memory on the printing compute node when the environment starts

     Waiting for input...
     Reading input from standard input

     Current dimensions of program PWSCF are:
     Max number of different atomic species (ntypx) = 10
     Max number of k-points (npk) =  40000
     Max angular momentum in pseudopotentials (lmaxx) =  4
     file O.pbe-n-kjpaw_psl.0.1.UPF: wavefunction(s)  2P renormalized
     Message from routine setup:
     using ibrav=0 with symmetry is DISCOURAGED, use correct ibrav instead

     Subspace diagonalization in iterative solution of the eigenvalue problem:
     a serial algorithm will be used


     G-vector sticks info
     --------------------
     sticks:   dense  smooth     PW     G-vecs:    dense   smooth      PW
     Sum         821     417    137                17781     6303    1213

     Using Slab Decomposition



     bravais-lattice index     =            0
     lattice parameter (alat)  =       5.0869  a.u.
     unit-cell volume          =     131.6259 (a.u.)^3
     number of atoms/cell      =            2
     number of atomic types    =            2
     number of electrons       =        26.00
     number of Kohn-Sham states=           17
     kinetic-energy cutoff     =      50.0000  Ry
     charge density cutoff     =     400.0000  Ry
     scf convergence threshold =      1.0E-08
     mixing beta               =       0.4000
     number of iterations used =            8  plain     mixing
     Exchange-correlation= SLA  PW   PBE  PBE
                           (   1   4   3   4   0   0   0)

     celldm(1)=   5.086934  celldm(2)=   0.000000  celldm(3)=   0.000000
     celldm(4)=   0.000000  celldm(5)=   0.000000  celldm(6)=   0.000000

     crystal axes: (cart. coord. in units of alat)
               a(1) = (   0.999988   0.005000   0.000000 )  
               a(2) = (   0.005000   0.999988   0.000000 )  
               a(3) = (   0.000000   0.000000   0.999988 )  

     reciprocal axes: (cart. coord. in units 2 pi/alat)
               b(1) = (  1.000038 -0.005000  0.000000 )  
               b(2) = ( -0.005000  1.000038  0.000000 )  
               b(3) = (  0.000000  0.000000  1.000012 )  


     PseudoPot. # 1 for O  read from file:
     ../SSSP_1.3.0_PBE_efficiency/O.pbe-n-kjpaw_psl.0.1.UPF
     MD5 check sum: 0234752ac141de4415c5fc33072bef88
     Pseudo is Projector augmented-wave + core cor, Zval =  6.0
     Generated using "atomic" code by A. Dal Corso  v.5.0.99 svn rev. 10869
     Shape of augmentation charge: BESSEL
     Using radial grid of 1095 points,  4 beta functions with: 
                l(1) =   0
                l(2) =   0
                l(3) =   1
                l(4) =   1
     Q(r) pseudized with 0 coefficients 


     PseudoPot. # 2 for Zn read from file:
     ../SSSP_1.3.0_PBE_efficiency/Zn_pbe_v1.uspp.F.UPF
     MD5 check sum: df62231357ef9e81f77b2b3087fa5675
     Pseudo is Ultrasoft, Zval = 20.0
     Generated by new atomic code, or converted to UPF format
     Using radial grid of  943 points,  6 beta functions with: 
                l(1) =   0
                l(2) =   0
                l(3) =   1
                l(4) =   1
                l(5) =   2
                l(6) =   2
     Q(r) pseudized with  8 coefficients,  rinner =    1.100   1.100   1.100
                                                       1.100   1.100

     atomic species   valence    mass     pseudopotential
     O                 6.00    15.99940     O ( 1.00)
     Zn               20.00    65.38000     Zn( 1.00)

      8 Sym. Ops., with inversion, found


                                    s                        frac. trans.

      isym =  1     identity                                     

 cryst.   s( 1) = (     1          0          0      )
                  (     0          1          0      )
                  (     0          0          1      )

 cart.    s( 1) = (  1.0000000  0.0000000  0.0000000 )
                  (  0.0000000  1.0000000  0.0000000 )
                  (  0.0000000  0.0000000  1.0000000 )


      isym =  2     180 deg rotation - cart. axis [0,0,1]        

 cryst.   s( 2) = (    -1          0          0      )
                  (     0         -1          0      )
                  (     0          0          1      )

 cart.    s( 2) = ( -1.0000000  0.0000000  0.0000000 )
                  (  0.0000000 -1.0000000  0.0000000 )
                  (  0.0000000  0.0000000  1.0000000 )


      isym =  3     180 deg rotation - cart. axis [1,1,0]        

 cryst.   s( 3) = (     0          1          0      )
                  (     1          0          0      )
                  (     0          0         -1      )

 cart.    s( 3) = (  0.0000000  1.0000000  0.0000000 )
                  (  1.0000000  0.0000000  0.0000000 )
                  (  0.0000000  0.0000000 -1.0000000 )


      isym =  4     180 deg rotation - cart. axis [1,-1,0]       

 cryst.   s( 4) = (     0         -1          0      )
                  (    -1          0          0      )
                  (     0          0         -1      )

 cart.    s( 4) = (  0.0000000 -1.0000000  0.0000000 )
                  ( -1.0000000  0.0000000  0.0000000 )
                  (  0.0000000  0.0000000 -1.0000000 )


      isym =  5     inversion                                    

 cryst.   s( 5) = (    -1          0          0      )
                  (     0         -1          0      )
                  (     0          0         -1      )

 cart.    s( 5) = ( -1.0000000  0.0000000  0.0000000 )
                  (  0.0000000 -1.0000000  0.0000000 )
                  (  0.0000000  0.0000000 -1.0000000 )


      isym =  6     inv. 180 deg rotation - cart. axis [0,0,1]   

 cryst.   s( 6) = (     1          0          0      )
                  (     0          1          0      )
                  (     0          0         -1      )

 cart.    s( 6) = (  1.0000000  0.0000000  0.0000000 )
                  (  0.0000000  1.0000000  0.0000000 )
                  (  0.0000000  0.0000000 -1.0000000 )


      isym =  7     inv. 180 deg rotation - cart. axis [1,1,0]   

 cryst.   s( 7) = (     0         -1          0      )
                  (    -1          0          0      )
                  (     0          0          1      )

 cart.    s( 7) = (  0.0000000 -1.0000000  0.0000000 )
                  ( -1.0000000  0.0000000  0.0000000 )
                  (  0.0000000  0.0000000  1.0000000 )


      isym =  8     inv. 180 deg rotation - cart. axis [1,-1,0]  

 cryst.   s( 8) = (     0          1          0      )
                  (     1          0          0      )
                  (     0          0          1      )

 cart.    s( 8) = (  0.0000000  1.0000000  0.0000000 )
                  (  1.0000000  0.0000000  0.0000000 )
                  (  0.0000000  0.0000000  1.0000000 )


   Cartesian axes

     site n.     atom                  positions (alat units)
         1        Zn     tau(   1) = (   0.0000000   0.0000000   0.0000000  )
         2        O      tau(   2) = (   0.5024937   0.5024937   0.4999938  )

   Crystallographic axes

     site n.     atom                  positions (cryst. coord.)
         1        Zn     tau(   1) = (  0.0000000  0.0000000  0.0000000  )
         2        O      tau(   2) = (  0.5000000  0.5000000  0.5000000  )

     number of k points=   301  Marzari-Vanderbilt smearing, width (Ry)=  0.0147
                       cart. coord. in units 2pi/alat
        k(    1) = (   0.0000000   0.0000000   0.0000000), wk =   0.0011574
        k(    2) = (   0.0000000   0.0000000   0.0833344), wk =   0.0023148
        k(    3) = (   0.0000000   0.0000000   0.1666687), wk =   0.0023148
        k(    4) = (   0.0000000   0.0000000   0.2500031), wk =   0.0023148
        k(    5) = (   0.0000000   0.0000000   0.3333375), wk =   0.0023148
        k(    6) = (   0.0000000   0.0000000   0.4166719), wk =   0.0023148
        k(    7) = (   0.0000000   0.0000000  -0.5000062), wk =   0.0011574
        k(    8) = (  -0.0004167   0.0833365   0.0000000), wk =   0.0046296
        k(    9) = (  -0.0004167   0.0833365   0.0833344), wk =   0.0092593
        k(   10) = (  -0.0004167   0.0833365   0.1666687), wk =   0.0092593
        k(   11) = (  -0.0004167   0.0833365   0.2500031), wk =   0.0092593
        k(   12) = (  -0.0004167   0.0833365   0.3333375), wk =   0.0092593
        k(   13) = (  -0.0004167   0.0833365   0.4166719), wk =   0.0092593
        k(   14) = (  -0.0004167   0.0833365  -0.5000062), wk =   0.0046296
        k(   15) = (  -0.0008334   0.1666729   0.0000000), wk =   0.0046296
        k(   16) = (  -0.0008334   0.1666729   0.0833344), wk =   0.0092593
        k(   17) = (  -0.0008334   0.1666729   0.1666687), wk =   0.0092593
        k(   18) = (  -0.0008334   0.1666729   0.2500031), wk =   0.0092593
        k(   19) = (  -0.0008334   0.1666729   0.3333375), wk =   0.0092593
        k(   20) = (  -0.0008334   0.1666729   0.4166719), wk =   0.0092593
        k(   21) = (  -0.0008334   0.1666729  -0.5000062), wk =   0.0046296
        k(   22) = (  -0.0012500   0.2500094   0.0000000), wk =   0.0046296
        k(   23) = (  -0.0012500   0.2500094   0.0833344), wk =   0.0092593
        k(   24) = (  -0.0012500   0.2500094   0.1666687), wk =   0.0092593
        k(   25) = (  -0.0012500   0.2500094   0.2500031), wk =   0.0092593
        k(   26) = (  -0.0012500   0.2500094   0.3333375), wk =   0.0092593
        k(   27) = (  -0.0012500   0.2500094   0.4166719), wk =   0.0092593
        k(   28) = (  -0.0012500   0.2500094  -0.5000062), wk =   0.0046296
        k(   29) = (  -0.0016667   0.3333458   0.0000000), wk =   0.0046296
        k(   30) = (  -0.0016667   0.3333458   0.0833344), wk =   0.0092593
        k(   31) = (  -0.0016667   0.3333458   0.1666687), wk =   0.0092593
        k(   32) = (  -0.0016667   0.3333458   0.2500031), wk =   0.0092593
        k(   33) = (  -0.0016667   0.3333458   0.3333375), wk =   0.0092593
        k(   34) = (  -0.0016667   0.3333458   0.4166719), wk =   0.0092593
        k(   35) = (  -0.0016667   0.3333458  -0.5000062), wk =   0.0046296
        k(   36) = (  -0.0020834   0.4166823   0.0000000), wk =   0.0046296
        k(   37) = (  -0.0020834   0.4166823   0.0833344), wk =   0.0092593
        k(   38) = (  -0.0020834   0.4166823   0.1666687), wk =   0.0092593
        k(   39) = (  -0.0020834   0.4166823   0.2500031), wk =   0.0092593
        k(   40) = (  -0.0020834   0.4166823   0.3333375), wk =   0.0092593
        k(   41) = (  -0.0020834   0.4166823   0.4166719), wk =   0.0092593
        k(   42) = (  -0.0020834   0.4166823  -0.5000062), wk =   0.0046296
        k(   43) = (   0.0025001  -0.5000188   0.0000000), wk =   0.0023148
        k(   44) = (   0.0025001  -0.5000188   0.0833344), wk =   0.0046296
        k(   45) = (   0.0025001  -0.5000188   0.1666687), wk =   0.0046296
        k(   46) = (   0.0025001  -0.5000188   0.2500031), wk =   0.0046296
        k(   47) = (   0.0025001  -0.5000188   0.3333375), wk =   0.0046296
        k(   48) = (   0.0025001  -0.5000188   0.4166719), wk =   0.0046296
        k(   49) = (   0.0025001  -0.5000188  -0.5000062), wk =   0.0023148
        k(   50) = (   0.0829198   0.0829198   0.0000000), wk =   0.0023148
        k(   51) = (   0.0829198   0.0829198   0.0833344), wk =   0.0046296
        k(   52) = (   0.0829198   0.0829198   0.1666687), wk =   0.0046296
        k(   53) = (   0.0829198   0.0829198   0.2500031), wk =   0.0046296
        k(   54) = (   0.0829198   0.0829198   0.3333375), wk =   0.0046296
        k(   55) = (   0.0829198   0.0829198   0.4166719), wk =   0.0046296
        k(   56) = (   0.0829198   0.0829198  -0.5000062), wk =   0.0023148
        k(   57) = (   0.0825031   0.1662562   0.0000000), wk =   0.0046296
        k(   58) = (   0.0825031   0.1662562   0.0833344), wk =   0.0092593
        k(   59) = (   0.0825031   0.1662562   0.1666687), wk =   0.0092593
        k(   60) = (   0.0825031   0.1662562   0.2500031), wk =   0.0092593
        k(   61) = (   0.0825031   0.1662562   0.3333375), wk =   0.0092593
        k(   62) = (   0.0825031   0.1662562   0.4166719), wk =   0.0092593
        k(   63) = (   0.0825031   0.1662562  -0.5000062), wk =   0.0046296
        k(   64) = (   0.0820864   0.2495927   0.0000000), wk =   0.0046296
        k(   65) = (   0.0820864   0.2495927   0.0833344), wk =   0.0092593
        k(   66) = (   0.0820864   0.2495927   0.1666687), wk =   0.0092593
        k(   67) = (   0.0820864   0.2495927   0.2500031), wk =   0.0092593
        k(   68) = (   0.0820864   0.2495927   0.3333375), wk =   0.0092593
        k(   69) = (   0.0820864   0.2495927   0.4166719), wk =   0.0092593
        k(   70) = (   0.0820864   0.2495927  -0.5000062), wk =   0.0046296
        k(   71) = (   0.0816697   0.3329292   0.0000000), wk =   0.0046296
        k(   72) = (   0.0816697   0.3329292   0.0833344), wk =   0.0092593
        k(   73) = (   0.0816697   0.3329292   0.1666687), wk =   0.0092593
        k(   74) = (   0.0816697   0.3329292   0.2500031), wk =   0.0092593
        k(   75) = (   0.0816697   0.3329292   0.3333375), wk =   0.0092593
        k(   76) = (   0.0816697   0.3329292   0.4166719), wk =   0.0092593
        k(   77) = (   0.0816697   0.3329292  -0.5000062), wk =   0.0046296
        k(   78) = (   0.0812530   0.4162656   0.0000000), wk =   0.0046296
        k(   79) = (   0.0812530   0.4162656   0.0833344), wk =   0.0092593
        k(   80) = (   0.0812530   0.4162656   0.1666687), wk =   0.0092593
        k(   81) = (   0.0812530   0.4162656   0.2500031), wk =   0.0092593
        k(   82) = (   0.0812530   0.4162656   0.3333375), wk =   0.0092593
        k(   83) = (   0.0812530   0.4162656   0.4166719), wk =   0.0092593
        k(   84) = (   0.0812530   0.4162656  -0.5000062), wk =   0.0046296
        k(   85) = (   0.0858366  -0.5004354   0.0000000), wk =   0.0046296
        k(   86) = (   0.0858366  -0.5004354   0.0833344), wk =   0.0092593
        k(   87) = (   0.0858366  -0.5004354   0.1666687), wk =   0.0092593
        k(   88) = (   0.0858366  -0.5004354   0.2500031), wk =   0.0092593
        k(   89) = (   0.0858366  -0.5004354   0.3333375), wk =   0.0092593
        k(   90) = (   0.0858366  -0.5004354   0.4166719), wk =   0.0092593
        k(   91) = (   0.0858366  -0.5004354  -0.5000062), wk =   0.0046296
        k(   92) = (   0.0854199  -0.4170990   0.0000000), wk =   0.0046296
        k(   93) = (   0.0854199  -0.4170990   0.0833344), wk =   0.0092593
        k(   94) = (   0.0854199  -0.4170990   0.1666687), wk =   0.0092593
        k(   95) = (   0.0854199  -0.4170990   0.2500031), wk =   0.0092593
        k(   96) = (   0.0854199  -0.4170990   0.3333375), wk =   0.0092593
        k(   97) = (   0.0854199  -0.4170990   0.4166719), wk =   0.0092593
        k(   98) = (   0.0854199  -0.4170990  -0.5000062), wk =   0.0046296
        k(   99) = (   0.0850032  -0.3337625   0.0000000), wk =   0.0046296
        k(  100) = (   0.0850032  -0.3337625   0.0833344), wk =   0.0092593
        k(  101) = (   0.0850032  -0.3337625   0.1666687), wk =   0.0092593
        k(  102) = (   0.0850032  -0.3337625   0.2500031), wk =   0.0092593
        k(  103) = (   0.0850032  -0.3337625   0.3333375), wk =   0.0092593
        k(  104) = (   0.0850032  -0.3337625   0.4166719), wk =   0.0092593
        k(  105) = (   0.0850032  -0.3337625  -0.5000062), wk =   0.0046296
        k(  106) = (   0.0845865  -0.2504261   0.0000000), wk =   0.0046296
        k(  107) = (   0.0845865  -0.2504261   0.0833344), wk =   0.0092593
        k(  108) = (   0.0845865  -0.2504261   0.1666687), wk =   0.0092593
        k(  109) = (   0.0845865  -0.2504261   0.2500031), wk =   0.0092593
        k(  110) = (   0.0845865  -0.2504261   0.3333375), wk =   0.0092593
        k(  111) = (   0.0845865  -0.2504261   0.4166719), wk =   0.0092593
        k(  112) = (   0.0845865  -0.2504261  -0.5000062), wk =   0.0046296
        k(  113) = (   0.0841698  -0.1670896   0.0000000), wk =   0.0046296
        k(  114) = (   0.0841698  -0.1670896   0.0833344), wk =   0.0092593
        k(  115) = (   0.0841698  -0.1670896   0.1666687), wk =   0.0092593
        k(  116) = (   0.0841698  -0.1670896   0.2500031), wk =   0.0092593
        k(  117) = (   0.0841698  -0.1670896   0.3333375), wk =   0.0092593
        k(  118) = (   0.0841698  -0.1670896   0.4166719), wk =   0.0092593
        k(  119) = (   0.0841698  -0.1670896  -0.5000062), wk =   0.0046296
        k(  120) = (   0.0837531  -0.0837531   0.0000000), wk =   0.0023148
        k(  121) = (   0.0837531  -0.0837531   0.0833344), wk =   0.0046296
        k(  122) = (   0.0837531  -0.0837531   0.1666687), wk =   0.0046296
        k(  123) = (   0.0837531  -0.0837531   0.2500031), wk =   0.0046296
        k(  124) = (   0.0837531  -0.0837531   0.3333375), wk =   0.0046296
        k(  125) = (   0.0837531  -0.0837531   0.4166719), wk =   0.0046296
        k(  126) = (   0.0837531  -0.0837531  -0.5000062), wk =   0.0023148
        k(  127) = (   0.1658396   0.1658396   0.0000000), wk =   0.0023148
        k(  128) = (   0.1658396   0.1658396   0.0833344), wk =   0.0046296
        k(  129) = (   0.1658396   0.1658396   0.1666687), wk =   0.0046296
        k(  130) = (   0.1658396   0.1658396   0.2500031), wk =   0.0046296
        k(  131) = (   0.1658396   0.1658396   0.3333375), wk =   0.0046296
        k(  132) = (   0.1658396   0.1658396   0.4166719), wk =   0.0046296
        k(  133) = (   0.1658396   0.1658396  -0.5000062), wk =   0.0023148
        k(  134) = (   0.1654229   0.2491760   0.0000000), wk =   0.0046296
        k(  135) = (   0.1654229   0.2491760   0.0833344), wk =   0.0092593
        k(  136) = (   0.1654229   0.2491760   0.1666687), wk =   0.0092593
        k(  137) = (   0.1654229   0.2491760   0.2500031), wk =   0.0092593
        k(  138) = (   0.1654229   0.2491760   0.3333375), wk =   0.0092593
        k(  139) = (   0.1654229   0.2491760   0.4166719), wk =   0.0092593
        k(  140) = (   0.1654229   0.2491760  -0.5000062), wk =   0.0046296
        k(  141) = (   0.1650062   0.3325125   0.0000000), wk =   0.0046296
        k(  142) = (   0.1650062   0.3325125   0.0833344), wk =   0.0092593
        k(  143) = (   0.1650062   0.3325125   0.1666687), wk =   0.0092593
        k(  144) = (   0.1650062   0.3325125   0.2500031), wk =   0.0092593
        k(  145) = (   0.1650062   0.3325125   0.3333375), wk =   0.0092593
        k(  146) = (   0.1650062   0.3325125   0.4166719), wk =   0.0092593
        k(  147) = (   0.1650062   0.3325125  -0.5000062), wk =   0.0046296
        k(  148) = (   0.1645895   0.4158489   0.0000000), wk =   0.0046296
        k(  149) = (   0.1645895   0.4158489   0.0833344), wk =   0.0092593
        k(  150) = (   0.1645895   0.4158489   0.1666687), wk =   0.0092593
        k(  151) = (   0.1645895   0.4158489   0.2500031), wk =   0.0092593
        k(  152) = (   0.1645895   0.4158489   0.3333375), wk =   0.0092593
        k(  153) = (   0.1645895   0.4158489   0.4166719), wk =   0.0092593
        k(  154) = (   0.1645895   0.4158489  -0.5000062), wk =   0.0046296
        k(  155) = (   0.1691730  -0.5008521   0.0000000), wk =   0.0046296
        k(  156) = (   0.1691730  -0.5008521   0.0833344), wk =   0.0092593
        k(  157) = (   0.1691730  -0.5008521   0.1666687), wk =   0.0092593
        k(  158) = (   0.1691730  -0.5008521   0.2500031), wk =   0.0092593
        k(  159) = (   0.1691730  -0.5008521   0.3333375), wk =   0.0092593
        k(  160) = (   0.1691730  -0.5008521   0.4166719), wk =   0.0092593
        k(  161) = (   0.1691730  -0.5008521  -0.5000062), wk =   0.0046296
        k(  162) = (   0.1687563  -0.4175157   0.0000000), wk =   0.0046296
        k(  163) = (   0.1687563  -0.4175157   0.0833344), wk =   0.0092593
        k(  164) = (   0.1687563  -0.4175157   0.1666687), wk =   0.0092593
        k(  165) = (   0.1687563  -0.4175157   0.2500031), wk =   0.0092593
        k(  166) = (   0.1687563  -0.4175157   0.3333375), wk =   0.0092593
        k(  167) = (   0.1687563  -0.4175157   0.4166719), wk =   0.0092593
        k(  168) = (   0.1687563  -0.4175157  -0.5000062), wk =   0.0046296
        k(  169) = (   0.1683396  -0.3341792   0.0000000), wk =   0.0046296
        k(  170) = (   0.1683396  -0.3341792   0.0833344), wk =   0.0092593
        k(  171) = (   0.1683396  -0.3341792   0.1666687), wk =   0.0092593
        k(  172) = (   0.1683396  -0.3341792   0.2500031), wk =   0.0092593
        k(  173) = (   0.1683396  -0.3341792   0.3333375), wk =   0.0092593
        k(  174) = (   0.1683396  -0.3341792   0.4166719), wk =   0.0092593
        k(  175) = (   0.1683396  -0.3341792  -0.5000062), wk =   0.0046296
        k(  176) = (   0.1679230  -0.2508427   0.0000000), wk =   0.0046296
        k(  177) = (   0.1679230  -0.2508427   0.0833344), wk =   0.0092593
        k(  178) = (   0.1679230  -0.2508427   0.1666687), wk =   0.0092593
        k(  179) = (   0.1679230  -0.2508427   0.2500031), wk =   0.0092593
        k(  180) = (   0.1679230  -0.2508427   0.3333375), wk =   0.0092593
        k(  181) = (   0.1679230  -0.2508427   0.4166719), wk =   0.0092593
        k(  182) = (   0.1679230  -0.2508427  -0.5000062), wk =   0.0046296
        k(  183) = (   0.1675063  -0.1675063   0.0000000), wk =   0.0023148
        k(  184) = (   0.1675063  -0.1675063   0.0833344), wk =   0.0046296
        k(  185) = (   0.1675063  -0.1675063   0.1666687), wk =   0.0046296
        k(  186) = (   0.1675063  -0.1675063   0.2500031), wk =   0.0046296
        k(  187) = (   0.1675063  -0.1675063   0.3333375), wk =   0.0046296
        k(  188) = (   0.1675063  -0.1675063   0.4166719), wk =   0.0046296
        k(  189) = (   0.1675063  -0.1675063  -0.5000062), wk =   0.0023148
        k(  190) = (   0.2487593   0.2487593   0.0000000), wk =   0.0023148
        k(  191) = (   0.2487593   0.2487593   0.0833344), wk =   0.0046296
        k(  192) = (   0.2487593   0.2487593   0.1666687), wk =   0.0046296
        k(  193) = (   0.2487593   0.2487593   0.2500031), wk =   0.0046296
        k(  194) = (   0.2487593   0.2487593   0.3333375), wk =   0.0046296
        k(  195) = (   0.2487593   0.2487593   0.4166719), wk =   0.0046296
        k(  196) = (   0.2487593   0.2487593  -0.5000062), wk =   0.0023148
        k(  197) = (   0.2483426   0.3320958   0.0000000), wk =   0.0046296
        k(  198) = (   0.2483426   0.3320958   0.0833344), wk =   0.0092593
        k(  199) = (   0.2483426   0.3320958   0.1666687), wk =   0.0092593
        k(  200) = (   0.2483426   0.3320958   0.2500031), wk =   0.0092593
        k(  201) = (   0.2483426   0.3320958   0.3333375), wk =   0.0092593
        k(  202) = (   0.2483426   0.3320958   0.4166719), wk =   0.0092593
        k(  203) = (   0.2483426   0.3320958  -0.5000062), wk =   0.0046296
        k(  204) = (   0.2479260   0.4154322   0.0000000), wk =   0.0046296
        k(  205) = (   0.2479260   0.4154322   0.0833344), wk =   0.0092593
        k(  206) = (   0.2479260   0.4154322   0.1666687), wk =   0.0092593
        k(  207) = (   0.2479260   0.4154322   0.2500031), wk =   0.0092593
        k(  208) = (   0.2479260   0.4154322   0.3333375), wk =   0.0092593
        k(  209) = (   0.2479260   0.4154322   0.4166719), wk =   0.0092593
        k(  210) = (   0.2479260   0.4154322  -0.5000062), wk =   0.0046296
        k(  211) = (   0.2525095  -0.5012688   0.0000000), wk =   0.0046296
        k(  212) = (   0.2525095  -0.5012688   0.0833344), wk =   0.0092593
        k(  213) = (   0.2525095  -0.5012688   0.1666687), wk =   0.0092593
        k(  214) = (   0.2525095  -0.5012688   0.2500031), wk =   0.0092593
        k(  215) = (   0.2525095  -0.5012688   0.3333375), wk =   0.0092593
        k(  216) = (   0.2525095  -0.5012688   0.4166719), wk =   0.0092593
        k(  217) = (   0.2525095  -0.5012688  -0.5000062), wk =   0.0046296
        k(  218) = (   0.2520928  -0.4179323   0.0000000), wk =   0.0046296
        k(  219) = (   0.2520928  -0.4179323   0.0833344), wk =   0.0092593
        k(  220) = (   0.2520928  -0.4179323   0.1666687), wk =   0.0092593
        k(  221) = (   0.2520928  -0.4179323   0.2500031), wk =   0.0092593
        k(  222) = (   0.2520928  -0.4179323   0.3333375), wk =   0.0092593
        k(  223) = (   0.2520928  -0.4179323   0.4166719), wk =   0.0092593
        k(  224) = (   0.2520928  -0.4179323  -0.5000062), wk =   0.0046296
        k(  225) = (   0.2516761  -0.3345959   0.0000000), wk =   0.0046296
        k(  226) = (   0.2516761  -0.3345959   0.0833344), wk =   0.0092593
        k(  227) = (   0.2516761  -0.3345959   0.1666687), wk =   0.0092593
        k(  228) = (   0.2516761  -0.3345959   0.2500031), wk =   0.0092593
        k(  229) = (   0.2516761  -0.3345959   0.3333375), wk =   0.0092593
        k(  230) = (   0.2516761  -0.3345959   0.4166719), wk =   0.0092593
        k(  231) = (   0.2516761  -0.3345959  -0.5000062), wk =   0.0046296
        k(  232) = (   0.2512594  -0.2512594   0.0000000), wk =   0.0023148
        k(  233) = (   0.2512594  -0.2512594   0.0833344), wk =   0.0046296
        k(  234) = (   0.2512594  -0.2512594   0.1666687), wk =   0.0046296
        k(  235) = (   0.2512594  -0.2512594   0.2500031), wk =   0.0046296
        k(  236) = (   0.2512594  -0.2512594   0.3333375), wk =   0.0046296
        k(  237) = (   0.2512594  -0.2512594   0.4166719), wk =   0.0046296
        k(  238) = (   0.2512594  -0.2512594  -0.5000062), wk =   0.0023148
        k(  239) = (   0.3316791   0.3316791   0.0000000), wk =   0.0023148
        k(  240) = (   0.3316791   0.3316791   0.0833344), wk =   0.0046296
        k(  241) = (   0.3316791   0.3316791   0.1666687), wk =   0.0046296
        k(  242) = (   0.3316791   0.3316791   0.2500031), wk =   0.0046296
        k(  243) = (   0.3316791   0.3316791   0.3333375), wk =   0.0046296
        k(  244) = (   0.3316791   0.3316791   0.4166719), wk =   0.0046296
        k(  245) = (   0.3316791   0.3316791  -0.5000062), wk =   0.0023148
        k(  246) = (   0.3312624   0.4150156   0.0000000), wk =   0.0046296
        k(  247) = (   0.3312624   0.4150156   0.0833344), wk =   0.0092593
        k(  248) = (   0.3312624   0.4150156   0.1666687), wk =   0.0092593
        k(  249) = (   0.3312624   0.4150156   0.2500031), wk =   0.0092593
        k(  250) = (   0.3312624   0.4150156   0.3333375), wk =   0.0092593
        k(  251) = (   0.3312624   0.4150156   0.4166719), wk =   0.0092593
        k(  252) = (   0.3312624   0.4150156  -0.5000062), wk =   0.0046296
        k(  253) = (   0.3358459  -0.5016855   0.0000000), wk =   0.0046296
        k(  254) = (   0.3358459  -0.5016855   0.0833344), wk =   0.0092593
        k(  255) = (   0.3358459  -0.5016855   0.1666687), wk =   0.0092593
        k(  256) = (   0.3358459  -0.5016855   0.2500031), wk =   0.0092593
        k(  257) = (   0.3358459  -0.5016855   0.3333375), wk =   0.0092593
        k(  258) = (   0.3358459  -0.5016855   0.4166719), wk =   0.0092593
        k(  259) = (   0.3358459  -0.5016855  -0.5000062), wk =   0.0046296
        k(  260) = (   0.3354292  -0.4183490   0.0000000), wk =   0.0046296
        k(  261) = (   0.3354292  -0.4183490   0.0833344), wk =   0.0092593
        k(  262) = (   0.3354292  -0.4183490   0.1666687), wk =   0.0092593
        k(  263) = (   0.3354292  -0.4183490   0.2500031), wk =   0.0092593
        k(  264) = (   0.3354292  -0.4183490   0.3333375), wk =   0.0092593
        k(  265) = (   0.3354292  -0.4183490   0.4166719), wk =   0.0092593
        k(  266) = (   0.3354292  -0.4183490  -0.5000062), wk =   0.0046296
        k(  267) = (   0.3350126  -0.3350126   0.0000000), wk =   0.0023148
        k(  268) = (   0.3350126  -0.3350126   0.0833344), wk =   0.0046296
        k(  269) = (   0.3350126  -0.3350126   0.1666687), wk =   0.0046296
        k(  270) = (   0.3350126  -0.3350126   0.2500031), wk =   0.0046296
        k(  271) = (   0.3350126  -0.3350126   0.3333375), wk =   0.0046296
        k(  272) = (   0.3350126  -0.3350126   0.4166719), wk =   0.0046296
        k(  273) = (   0.3350126  -0.3350126  -0.5000062), wk =   0.0023148
        k(  274) = (   0.4145989   0.4145989   0.0000000), wk =   0.0023148
        k(  275) = (   0.4145989   0.4145989   0.0833344), wk =   0.0046296
        k(  276) = (   0.4145989   0.4145989   0.1666687), wk =   0.0046296
        k(  277) = (   0.4145989   0.4145989   0.2500031), wk =   0.0046296
        k(  278) = (   0.4145989   0.4145989   0.3333375), wk =   0.0046296
        k(  279) = (   0.4145989   0.4145989   0.4166719), wk =   0.0046296
        k(  280) = (   0.4145989   0.4145989  -0.5000062), wk =   0.0023148
        k(  281) = (   0.4191824  -0.5021022   0.0000000), wk =   0.0046296
        k(  282) = (   0.4191824  -0.5021022   0.0833344), wk =   0.0092593
        k(  283) = (   0.4191824  -0.5021022   0.1666687), wk =   0.0092593
        k(  284) = (   0.4191824  -0.5021022   0.2500031), wk =   0.0092593
        k(  285) = (   0.4191824  -0.5021022   0.3333375), wk =   0.0092593
        k(  286) = (   0.4191824  -0.5021022   0.4166719), wk =   0.0092593
        k(  287) = (   0.4191824  -0.5021022  -0.5000062), wk =   0.0046296
        k(  288) = (   0.4187657  -0.4187657   0.0000000), wk =   0.0023148
        k(  289) = (   0.4187657  -0.4187657   0.0833344), wk =   0.0046296
        k(  290) = (   0.4187657  -0.4187657   0.1666687), wk =   0.0046296
        k(  291) = (   0.4187657  -0.4187657   0.2500031), wk =   0.0046296
        k(  292) = (   0.4187657  -0.4187657   0.3333375), wk =   0.0046296
        k(  293) = (   0.4187657  -0.4187657   0.4166719), wk =   0.0046296
        k(  294) = (   0.4187657  -0.4187657  -0.5000062), wk =   0.0023148
        k(  295) = (  -0.4975187  -0.4975187   0.0000000), wk =   0.0011574
        k(  296) = (  -0.4975187  -0.4975187   0.0833344), wk =   0.0023148
        k(  297) = (  -0.4975187  -0.4975187   0.1666687), wk =   0.0023148
        k(  298) = (  -0.4975187  -0.4975187   0.2500031), wk =   0.0023148
        k(  299) = (  -0.4975187  -0.4975187   0.3333375), wk =   0.0023148
        k(  300) = (  -0.4975187  -0.4975187   0.4166719), wk =   0.0023148
        k(  301) = (  -0.4975187  -0.4975187  -0.5000062), wk =   0.0011574

                       cryst. coord.
        k(    1) = (   0.0000000   0.0000000   0.0000000), wk =   0.0011574
        k(    2) = (   0.0000000   0.0000000   0.0833333), wk =   0.0023148
        k(    3) = (   0.0000000   0.0000000   0.1666667), wk =   0.0023148
        k(    4) = (   0.0000000   0.0000000   0.2500000), wk =   0.0023148
        k(    5) = (   0.0000000   0.0000000   0.3333333), wk =   0.0023148
        k(    6) = (   0.0000000   0.0000000   0.4166667), wk =   0.0023148
        k(    7) = (   0.0000000   0.0000000  -0.5000000), wk =   0.0011574
        k(    8) = (  -0.0000000   0.0833333   0.0000000), wk =   0.0046296
        k(    9) = (  -0.0000000   0.0833333   0.0833333), wk =   0.0092593
        k(   10) = (  -0.0000000   0.0833333   0.1666667), wk =   0.0092593
        k(   11) = (  -0.0000000   0.0833333   0.2500000), wk =   0.0092593
        k(   12) = (  -0.0000000   0.0833333   0.3333333), wk =   0.0092593
        k(   13) = (  -0.0000000   0.0833333   0.4166667), wk =   0.0092593
        k(   14) = (  -0.0000000   0.0833333  -0.5000000), wk =   0.0046296
        k(   15) = (  -0.0000000   0.1666667   0.0000000), wk =   0.0046296
        k(   16) = (  -0.0000000   0.1666667   0.0833333), wk =   0.0092593
        k(   17) = (  -0.0000000   0.1666667   0.1666667), wk =   0.0092593
        k(   18) = (  -0.0000000   0.1666667   0.2500000), wk =   0.0092593
        k(   19) = (  -0.0000000   0.1666667   0.3333333), wk =   0.0092593
        k(   20) = (  -0.0000000   0.1666667   0.4166667), wk =   0.0092593
        k(   21) = (  -0.0000000   0.1666667  -0.5000000), wk =   0.0046296
        k(   22) = (   0.0000000   0.2500000   0.0000000), wk =   0.0046296
        k(   23) = (   0.0000000   0.2500000   0.0833333), wk =   0.0092593
        k(   24) = (   0.0000000   0.2500000   0.1666667), wk =   0.0092593
        k(   25) = (   0.0000000   0.2500000   0.2500000), wk =   0.0092593
        k(   26) = (   0.0000000   0.2500000   0.3333333), wk =   0.0092593
        k(   27) = (   0.0000000   0.2500000   0.4166667), wk =   0.0092593
        k(   28) = (   0.0000000   0.2500000  -0.5000000), wk =   0.0046296
        k(   29) = (  -0.0000000   0.3333333   0.0000000), wk =   0.0046296
        k(   30) = (  -0.0000000   0.3333333   0.0833333), wk =   0.0092593
        k(   31) = (  -0.0000000   0.3333333   0.1666667), wk =   0.0092593
        k(   32) = (  -0.0000000   0.3333333   0.2500000), wk =   0.0092593
        k(   33) = (  -0.0000000   0.3333333   0.3333333), wk =   0.0092593
        k(   34) = (  -0.0000000   0.3333333   0.4166667), wk =   0.0092593
        k(   35) = (  -0.0000000   0.3333333  -0.5000000), wk =   0.0046296
        k(   36) = (   0.0000000   0.4166667   0.0000000), wk =   0.0046296
        k(   37) = (   0.0000000   0.4166667   0.0833333), wk =   0.0092593
        k(   38) = (   0.0000000   0.4166667   0.1666667), wk =   0.0092593
        k(   39) = (   0.0000000   0.4166667   0.2500000), wk =   0.0092593
        k(   40) = (   0.0000000   0.4166667   0.3333333), wk =   0.0092593
        k(   41) = (   0.0000000   0.4166667   0.4166667), wk =   0.0092593
        k(   42) = (   0.0000000   0.4166667  -0.5000000), wk =   0.0046296
        k(   43) = (   0.0000000  -0.5000000   0.0000000), wk =   0.0023148
        k(   44) = (   0.0000000  -0.5000000   0.0833333), wk =   0.0046296
        k(   45) = (   0.0000000  -0.5000000   0.1666667), wk =   0.0046296
        k(   46) = (   0.0000000  -0.5000000   0.2500000), wk =   0.0046296
        k(   47) = (   0.0000000  -0.5000000   0.3333333), wk =   0.0046296
        k(   48) = (   0.0000000  -0.5000000   0.4166667), wk =   0.0046296
        k(   49) = (   0.0000000  -0.5000000  -0.5000000), wk =   0.0023148
        k(   50) = (   0.0833333   0.0833333   0.0000000), wk =   0.0023148
        k(   51) = (   0.0833333   0.0833333   0.0833333), wk =   0.0046296
        k(   52) = (   0.0833333   0.0833333   0.1666667), wk =   0.0046296
        k(   53) = (   0.0833333   0.0833333   0.2500000), wk =   0.0046296
        k(   54) = (   0.0833333   0.0833333   0.3333333), wk =   0.0046296
        k(   55) = (   0.0833333   0.0833333   0.4166667), wk =   0.0046296
        k(   56) = (   0.0833333   0.0833333  -0.5000000), wk =   0.0023148
        k(   57) = (   0.0833333   0.1666667   0.0000000), wk =   0.0046296
        k(   58) = (   0.0833333   0.1666667   0.0833333), wk =   0.0092593
        k(   59) = (   0.0833333   0.1666667   0.1666667), wk =   0.0092593
        k(   60) = (   0.0833333   0.1666667   0.2500000), wk =   0.0092593
        k(   61) = (   0.0833333   0.1666667   0.3333333), wk =   0.0092593
        k(   62) = (   0.0833333   0.1666667   0.4166667), wk =   0.0092593
        k(   63) = (   0.0833333   0.1666667  -0.5000000), wk =   0.0046296
        k(   64) = (   0.0833333   0.2500000   0.0000000), wk =   0.0046296
        k(   65) = (   0.0833333   0.2500000   0.0833333), wk =   0.0092593
        k(   66) = (   0.0833333   0.2500000   0.1666667), wk =   0.0092593
        k(   67) = (   0.0833333   0.2500000   0.2500000), wk =   0.0092593
        k(   68) = (   0.0833333   0.2500000   0.3333333), wk =   0.0092593
        k(   69) = (   0.0833333   0.2500000   0.4166667), wk =   0.0092593
        k(   70) = (   0.0833333   0.2500000  -0.5000000), wk =   0.0046296
        k(   71) = (   0.0833333   0.3333333   0.0000000), wk =   0.0046296
        k(   72) = (   0.0833333   0.3333333   0.0833333), wk =   0.0092593
        k(   73) = (   0.0833333   0.3333333   0.1666667), wk =   0.0092593
        k(   74) = (   0.0833333   0.3333333   0.2500000), wk =   0.0092593
        k(   75) = (   0.0833333   0.3333333   0.3333333), wk =   0.0092593
        k(   76) = (   0.0833333   0.3333333   0.4166667), wk =   0.0092593
        k(   77) = (   0.0833333   0.3333333  -0.5000000), wk =   0.0046296
        k(   78) = (   0.0833333   0.4166667   0.0000000), wk =   0.0046296
        k(   79) = (   0.0833333   0.4166667   0.0833333), wk =   0.0092593
        k(   80) = (   0.0833333   0.4166667   0.1666667), wk =   0.0092593
        k(   81) = (   0.0833333   0.4166667   0.2500000), wk =   0.0092593
        k(   82) = (   0.0833333   0.4166667   0.3333333), wk =   0.0092593
        k(   83) = (   0.0833333   0.4166667   0.4166667), wk =   0.0092593
        k(   84) = (   0.0833333   0.4166667  -0.5000000), wk =   0.0046296
        k(   85) = (   0.0833333  -0.5000000   0.0000000), wk =   0.0046296
        k(   86) = (   0.0833333  -0.5000000   0.0833333), wk =   0.0092593
        k(   87) = (   0.0833333  -0.5000000   0.1666667), wk =   0.0092593
        k(   88) = (   0.0833333  -0.5000000   0.2500000), wk =   0.0092593
        k(   89) = (   0.0833333  -0.5000000   0.3333333), wk =   0.0092593
        k(   90) = (   0.0833333  -0.5000000   0.4166667), wk =   0.0092593
        k(   91) = (   0.0833333  -0.5000000  -0.5000000), wk =   0.0046296
        k(   92) = (   0.0833333  -0.4166667   0.0000000), wk =   0.0046296
        k(   93) = (   0.0833333  -0.4166667   0.0833333), wk =   0.0092593
        k(   94) = (   0.0833333  -0.4166667   0.1666667), wk =   0.0092593
        k(   95) = (   0.0833333  -0.4166667   0.2500000), wk =   0.0092593
        k(   96) = (   0.0833333  -0.4166667   0.3333333), wk =   0.0092593
        k(   97) = (   0.0833333  -0.4166667   0.4166667), wk =   0.0092593
        k(   98) = (   0.0833333  -0.4166667  -0.5000000), wk =   0.0046296
        k(   99) = (   0.0833333  -0.3333333   0.0000000), wk =   0.0046296
        k(  100) = (   0.0833333  -0.3333333   0.0833333), wk =   0.0092593
        k(  101) = (   0.0833333  -0.3333333   0.1666667), wk =   0.0092593
        k(  102) = (   0.0833333  -0.3333333   0.2500000), wk =   0.0092593
        k(  103) = (   0.0833333  -0.3333333   0.3333333), wk =   0.0092593
        k(  104) = (   0.0833333  -0.3333333   0.4166667), wk =   0.0092593
        k(  105) = (   0.0833333  -0.3333333  -0.5000000), wk =   0.0046296
        k(  106) = (   0.0833333  -0.2500000   0.0000000), wk =   0.0046296
        k(  107) = (   0.0833333  -0.2500000   0.0833333), wk =   0.0092593
        k(  108) = (   0.0833333  -0.2500000   0.1666667), wk =   0.0092593
        k(  109) = (   0.0833333  -0.2500000   0.2500000), wk =   0.0092593
        k(  110) = (   0.0833333  -0.2500000   0.3333333), wk =   0.0092593
        k(  111) = (   0.0833333  -0.2500000   0.4166667), wk =   0.0092593
        k(  112) = (   0.0833333  -0.2500000  -0.5000000), wk =   0.0046296
        k(  113) = (   0.0833333  -0.1666667   0.0000000), wk =   0.0046296
        k(  114) = (   0.0833333  -0.1666667   0.0833333), wk =   0.0092593
        k(  115) = (   0.0833333  -0.1666667   0.1666667), wk =   0.0092593
        k(  116) = (   0.0833333  -0.1666667   0.2500000), wk =   0.0092593
        k(  117) = (   0.0833333  -0.1666667   0.3333333), wk =   0.0092593
        k(  118) = (   0.0833333  -0.1666667   0.4166667), wk =   0.0092593
        k(  119) = (   0.0833333  -0.1666667  -0.5000000), wk =   0.0046296
        k(  120) = (   0.0833333  -0.0833333   0.0000000), wk =   0.0023148
        k(  121) = (   0.0833333  -0.0833333   0.0833333), wk =   0.0046296
        k(  122) = (   0.0833333  -0.0833333   0.1666667), wk =   0.0046296
        k(  123) = (   0.0833333  -0.0833333   0.2500000), wk =   0.0046296
        k(  124) = (   0.0833333  -0.0833333   0.3333333), wk =   0.0046296
        k(  125) = (   0.0833333  -0.0833333   0.4166667), wk =   0.0046296
        k(  126) = (   0.0833333  -0.0833333  -0.5000000), wk =   0.0023148
        k(  127) = (   0.1666667   0.1666667   0.0000000), wk =   0.0023148
        k(  128) = (   0.1666667   0.1666667   0.0833333), wk =   0.0046296
        k(  129) = (   0.1666667   0.1666667   0.1666667), wk =   0.0046296
        k(  130) = (   0.1666667   0.1666667   0.2500000), wk =   0.0046296
        k(  131) = (   0.1666667   0.1666667   0.3333333), wk =   0.0046296
        k(  132) = (   0.1666667   0.1666667   0.4166667), wk =   0.0046296
        k(  133) = (   0.1666667   0.1666667  -0.5000000), wk =   0.0023148
        k(  134) = (   0.1666667   0.2500000   0.0000000), wk =   0.0046296
        k(  135) = (   0.1666667   0.2500000   0.0833333), wk =   0.0092593
        k(  136) = (   0.1666667   0.2500000   0.1666667), wk =   0.0092593
        k(  137) = (   0.1666667   0.2500000   0.2500000), wk =   0.0092593
        k(  138) = (   0.1666667   0.2500000   0.3333333), wk =   0.0092593
        k(  139) = (   0.1666667   0.2500000   0.4166667), wk =   0.0092593
        k(  140) = (   0.1666667   0.2500000  -0.5000000), wk =   0.0046296
        k(  141) = (   0.1666667   0.3333333   0.0000000), wk =   0.0046296
        k(  142) = (   0.1666667   0.3333333   0.0833333), wk =   0.0092593
        k(  143) = (   0.1666667   0.3333333   0.1666667), wk =   0.0092593
        k(  144) = (   0.1666667   0.3333333   0.2500000), wk =   0.0092593
        k(  145) = (   0.1666667   0.3333333   0.3333333), wk =   0.0092593
        k(  146) = (   0.1666667   0.3333333   0.4166667), wk =   0.0092593
        k(  147) = (   0.1666667   0.3333333  -0.5000000), wk =   0.0046296
        k(  148) = (   0.1666667   0.4166667   0.0000000), wk =   0.0046296
        k(  149) = (   0.1666667   0.4166667   0.0833333), wk =   0.0092593
        k(  150) = (   0.1666667   0.4166667   0.1666667), wk =   0.0092593
        k(  151) = (   0.1666667   0.4166667   0.2500000), wk =   0.0092593
        k(  152) = (   0.1666667   0.4166667   0.3333333), wk =   0.0092593
        k(  153) = (   0.1666667   0.4166667   0.4166667), wk =   0.0092593
        k(  154) = (   0.1666667   0.4166667  -0.5000000), wk =   0.0046296
        k(  155) = (   0.1666667  -0.5000000   0.0000000), wk =   0.0046296
        k(  156) = (   0.1666667  -0.5000000   0.0833333), wk =   0.0092593
        k(  157) = (   0.1666667  -0.5000000   0.1666667), wk =   0.0092593
        k(  158) = (   0.1666667  -0.5000000   0.2500000), wk =   0.0092593
        k(  159) = (   0.1666667  -0.5000000   0.3333333), wk =   0.0092593
        k(  160) = (   0.1666667  -0.5000000   0.4166667), wk =   0.0092593
        k(  161) = (   0.1666667  -0.5000000  -0.5000000), wk =   0.0046296
        k(  162) = (   0.1666667  -0.4166667   0.0000000), wk =   0.0046296
        k(  163) = (   0.1666667  -0.4166667   0.0833333), wk =   0.0092593
        k(  164) = (   0.1666667  -0.4166667   0.1666667), wk =   0.0092593
        k(  165) = (   0.1666667  -0.4166667   0.2500000), wk =   0.0092593
        k(  166) = (   0.1666667  -0.4166667   0.3333333), wk =   0.0092593
        k(  167) = (   0.1666667  -0.4166667   0.4166667), wk =   0.0092593
        k(  168) = (   0.1666667  -0.4166667  -0.5000000), wk =   0.0046296
        k(  169) = (   0.1666667  -0.3333333   0.0000000), wk =   0.0046296
        k(  170) = (   0.1666667  -0.3333333   0.0833333), wk =   0.0092593
        k(  171) = (   0.1666667  -0.3333333   0.1666667), wk =   0.0092593
        k(  172) = (   0.1666667  -0.3333333   0.2500000), wk =   0.0092593
        k(  173) = (   0.1666667  -0.3333333   0.3333333), wk =   0.0092593
        k(  174) = (   0.1666667  -0.3333333   0.4166667), wk =   0.0092593
        k(  175) = (   0.1666667  -0.3333333  -0.5000000), wk =   0.0046296
        k(  176) = (   0.1666667  -0.2500000   0.0000000), wk =   0.0046296
        k(  177) = (   0.1666667  -0.2500000   0.0833333), wk =   0.0092593
        k(  178) = (   0.1666667  -0.2500000   0.1666667), wk =   0.0092593
        k(  179) = (   0.1666667  -0.2500000   0.2500000), wk =   0.0092593
        k(  180) = (   0.1666667  -0.2500000   0.3333333), wk =   0.0092593
        k(  181) = (   0.1666667  -0.2500000   0.4166667), wk =   0.0092593
        k(  182) = (   0.1666667  -0.2500000  -0.5000000), wk =   0.0046296
        k(  183) = (   0.1666667  -0.1666667   0.0000000), wk =   0.0023148
        k(  184) = (   0.1666667  -0.1666667   0.0833333), wk =   0.0046296
        k(  185) = (   0.1666667  -0.1666667   0.1666667), wk =   0.0046296
        k(  186) = (   0.1666667  -0.1666667   0.2500000), wk =   0.0046296
        k(  187) = (   0.1666667  -0.1666667   0.3333333), wk =   0.0046296
        k(  188) = (   0.1666667  -0.1666667   0.4166667), wk =   0.0046296
        k(  189) = (   0.1666667  -0.1666667  -0.5000000), wk =   0.0023148
        k(  190) = (   0.2500000   0.2500000   0.0000000), wk =   0.0023148
        k(  191) = (   0.2500000   0.2500000   0.0833333), wk =   0.0046296
        k(  192) = (   0.2500000   0.2500000   0.1666667), wk =   0.0046296
        k(  193) = (   0.2500000   0.2500000   0.2500000), wk =   0.0046296
        k(  194) = (   0.2500000   0.2500000   0.3333333), wk =   0.0046296
        k(  195) = (   0.2500000   0.2500000   0.4166667), wk =   0.0046296
        k(  196) = (   0.2500000   0.2500000  -0.5000000), wk =   0.0023148
        k(  197) = (   0.2500000   0.3333333   0.0000000), wk =   0.0046296
        k(  198) = (   0.2500000   0.3333333   0.0833333), wk =   0.0092593
        k(  199) = (   0.2500000   0.3333333   0.1666667), wk =   0.0092593
        k(  200) = (   0.2500000   0.3333333   0.2500000), wk =   0.0092593
        k(  201) = (   0.2500000   0.3333333   0.3333333), wk =   0.0092593
        k(  202) = (   0.2500000   0.3333333   0.4166667), wk =   0.0092593
        k(  203) = (   0.2500000   0.3333333  -0.5000000), wk =   0.0046296
        k(  204) = (   0.2500000   0.4166667   0.0000000), wk =   0.0046296
        k(  205) = (   0.2500000   0.4166667   0.0833333), wk =   0.0092593
        k(  206) = (   0.2500000   0.4166667   0.1666667), wk =   0.0092593
        k(  207) = (   0.2500000   0.4166667   0.2500000), wk =   0.0092593
        k(  208) = (   0.2500000   0.4166667   0.3333333), wk =   0.0092593
        k(  209) = (   0.2500000   0.4166667   0.4166667), wk =   0.0092593
        k(  210) = (   0.2500000   0.4166667  -0.5000000), wk =   0.0046296
        k(  211) = (   0.2500000  -0.5000000   0.0000000), wk =   0.0046296
        k(  212) = (   0.2500000  -0.5000000   0.0833333), wk =   0.0092593
        k(  213) = (   0.2500000  -0.5000000   0.1666667), wk =   0.0092593
        k(  214) = (   0.2500000  -0.5000000   0.2500000), wk =   0.0092593
        k(  215) = (   0.2500000  -0.5000000   0.3333333), wk =   0.0092593
        k(  216) = (   0.2500000  -0.5000000   0.4166667), wk =   0.0092593
        k(  217) = (   0.2500000  -0.5000000  -0.5000000), wk =   0.0046296
        k(  218) = (   0.2500000  -0.4166667   0.0000000), wk =   0.0046296
        k(  219) = (   0.2500000  -0.4166667   0.0833333), wk =   0.0092593
        k(  220) = (   0.2500000  -0.4166667   0.1666667), wk =   0.0092593
        k(  221) = (   0.2500000  -0.4166667   0.2500000), wk =   0.0092593
        k(  222) = (   0.2500000  -0.4166667   0.3333333), wk =   0.0092593
        k(  223) = (   0.2500000  -0.4166667   0.4166667), wk =   0.0092593
        k(  224) = (   0.2500000  -0.4166667  -0.5000000), wk =   0.0046296
        k(  225) = (   0.2500000  -0.3333333   0.0000000), wk =   0.0046296
        k(  226) = (   0.2500000  -0.3333333   0.0833333), wk =   0.0092593
        k(  227) = (   0.2500000  -0.3333333   0.1666667), wk =   0.0092593
        k(  228) = (   0.2500000  -0.3333333   0.2500000), wk =   0.0092593
        k(  229) = (   0.2500000  -0.3333333   0.3333333), wk =   0.0092593
        k(  230) = (   0.2500000  -0.3333333   0.4166667), wk =   0.0092593
        k(  231) = (   0.2500000  -0.3333333  -0.5000000), wk =   0.0046296
        k(  232) = (   0.2500000  -0.2500000   0.0000000), wk =   0.0023148
        k(  233) = (   0.2500000  -0.2500000   0.0833333), wk =   0.0046296
        k(  234) = (   0.2500000  -0.2500000   0.1666667), wk =   0.0046296
        k(  235) = (   0.2500000  -0.2500000   0.2500000), wk =   0.0046296
        k(  236) = (   0.2500000  -0.2500000   0.3333333), wk =   0.0046296
        k(  237) = (   0.2500000  -0.2500000   0.4166667), wk =   0.0046296
        k(  238) = (   0.2500000  -0.2500000  -0.5000000), wk =   0.0023148
        k(  239) = (   0.3333333   0.3333333   0.0000000), wk =   0.0023148
        k(  240) = (   0.3333333   0.3333333   0.0833333), wk =   0.0046296
        k(  241) = (   0.3333333   0.3333333   0.1666667), wk =   0.0046296
        k(  242) = (   0.3333333   0.3333333   0.2500000), wk =   0.0046296
        k(  243) = (   0.3333333   0.3333333   0.3333333), wk =   0.0046296
        k(  244) = (   0.3333333   0.3333333   0.4166667), wk =   0.0046296
        k(  245) = (   0.3333333   0.3333333  -0.5000000), wk =   0.0023148
        k(  246) = (   0.3333333   0.4166667   0.0000000), wk =   0.0046296
        k(  247) = (   0.3333333   0.4166667   0.0833333), wk =   0.0092593
        k(  248) = (   0.3333333   0.4166667   0.1666667), wk =   0.0092593
        k(  249) = (   0.3333333   0.4166667   0.2500000), wk =   0.0092593
        k(  250) = (   0.3333333   0.4166667   0.3333333), wk =   0.0092593
        k(  251) = (   0.3333333   0.4166667   0.4166667), wk =   0.0092593
        k(  252) = (   0.3333333   0.4166667  -0.5000000), wk =   0.0046296
        k(  253) = (   0.3333333  -0.5000000   0.0000000), wk =   0.0046296
        k(  254) = (   0.3333333  -0.5000000   0.0833333), wk =   0.0092593
        k(  255) = (   0.3333333  -0.5000000   0.1666667), wk =   0.0092593
        k(  256) = (   0.3333333  -0.5000000   0.2500000), wk =   0.0092593
        k(  257) = (   0.3333333  -0.5000000   0.3333333), wk =   0.0092593
        k(  258) = (   0.3333333  -0.5000000   0.4166667), wk =   0.0092593
        k(  259) = (   0.3333333  -0.5000000  -0.5000000), wk =   0.0046296
        k(  260) = (   0.3333333  -0.4166667   0.0000000), wk =   0.0046296
        k(  261) = (   0.3333333  -0.4166667   0.0833333), wk =   0.0092593
        k(  262) = (   0.3333333  -0.4166667   0.1666667), wk =   0.0092593
        k(  263) = (   0.3333333  -0.4166667   0.2500000), wk =   0.0092593
        k(  264) = (   0.3333333  -0.4166667   0.3333333), wk =   0.0092593
        k(  265) = (   0.3333333  -0.4166667   0.4166667), wk =   0.0092593
        k(  266) = (   0.3333333  -0.4166667  -0.5000000), wk =   0.0046296
        k(  267) = (   0.3333333  -0.3333333   0.0000000), wk =   0.0023148
        k(  268) = (   0.3333333  -0.3333333   0.0833333), wk =   0.0046296
        k(  269) = (   0.3333333  -0.3333333   0.1666667), wk =   0.0046296
        k(  270) = (   0.3333333  -0.3333333   0.2500000), wk =   0.0046296
        k(  271) = (   0.3333333  -0.3333333   0.3333333), wk =   0.0046296
        k(  272) = (   0.3333333  -0.3333333   0.4166667), wk =   0.0046296
        k(  273) = (   0.3333333  -0.3333333  -0.5000000), wk =   0.0023148
        k(  274) = (   0.4166667   0.4166667   0.0000000), wk =   0.0023148
        k(  275) = (   0.4166667   0.4166667   0.0833333), wk =   0.0046296
        k(  276) = (   0.4166667   0.4166667   0.1666667), wk =   0.0046296
        k(  277) = (   0.4166667   0.4166667   0.2500000), wk =   0.0046296
        k(  278) = (   0.4166667   0.4166667   0.3333333), wk =   0.0046296
        k(  279) = (   0.4166667   0.4166667   0.4166667), wk =   0.0046296
        k(  280) = (   0.4166667   0.4166667  -0.5000000), wk =   0.0023148
        k(  281) = (   0.4166667  -0.5000000   0.0000000), wk =   0.0046296
        k(  282) = (   0.4166667  -0.5000000   0.0833333), wk =   0.0092593
        k(  283) = (   0.4166667  -0.5000000   0.1666667), wk =   0.0092593
        k(  284) = (   0.4166667  -0.5000000   0.2500000), wk =   0.0092593
        k(  285) = (   0.4166667  -0.5000000   0.3333333), wk =   0.0092593
        k(  286) = (   0.4166667  -0.5000000   0.4166667), wk =   0.0092593
        k(  287) = (   0.4166667  -0.5000000  -0.5000000), wk =   0.0046296
        k(  288) = (   0.4166667  -0.4166667   0.0000000), wk =   0.0023148
        k(  289) = (   0.4166667  -0.4166667   0.0833333), wk =   0.0046296
        k(  290) = (   0.4166667  -0.4166667   0.1666667), wk =   0.0046296
        k(  291) = (   0.4166667  -0.4166667   0.2500000), wk =   0.0046296
        k(  292) = (   0.4166667  -0.4166667   0.3333333), wk =   0.0046296
        k(  293) = (   0.4166667  -0.4166667   0.4166667), wk =   0.0046296
        k(  294) = (   0.4166667  -0.4166667  -0.5000000), wk =   0.0023148
        k(  295) = (  -0.5000000  -0.5000000   0.0000000), wk =   0.0011574
        k(  296) = (  -0.5000000  -0.5000000   0.0833333), wk =   0.0023148
        k(  297) = (  -0.5000000  -0.5000000   0.1666667), wk =   0.0023148
        k(  298) = (  -0.5000000  -0.5000000   0.2500000), wk =   0.0023148
        k(  299) = (  -0.5000000  -0.5000000   0.3333333), wk =   0.0023148
        k(  300) = (  -0.5000000  -0.5000000   0.4166667), wk =   0.0023148
        k(  301) = (  -0.5000000  -0.5000000  -0.5000000), wk =   0.0011574

     Dense  grid:    17781 G-vectors     FFT dimensions: (  36,  36,  36)

     Smooth grid:     6303 G-vectors     FFT dimensions: (  24,  24,  24)

     Dynamical RAM for                 wfc:       0.20 MB

     Dynamical RAM for     wfc (w. buffer):      61.57 MB

     Dynamical RAM for           str. fact:       0.54 MB

     Dynamical RAM for           local pot:       0.00 MB

     Dynamical RAM for          nlocal pot:       0.31 MB

     Dynamical RAM for                qrad:       3.21 MB

     Dynamical RAM for          rho,v,vnew:       1.88 MB

     Dynamical RAM for               rhoin:       0.63 MB

     Dynamical RAM for            rho*nmix:       4.34 MB

     Dynamical RAM for           G-vectors:       1.07 MB

     Dynamical RAM for          h,s,v(r/c):       0.05 MB

     Dynamical RAM for          <psi|beta>:       0.01 MB

     Dynamical RAM for                 psi:       0.41 MB

     Dynamical RAM for                hpsi:       0.41 MB

     Dynamical RAM for                spsi:       0.41 MB

     Dynamical RAM for      wfcinit/wfcrot:       0.41 MB

     Dynamical RAM for           addusdens:      50.74 MB

     Dynamical RAM for          addusforce:      50.88 MB

     Dynamical RAM for         addusstress:      54.53 MB

     Estimated static dynamical RAM per process >      71.81 MB

     Estimated max dynamical RAM per process >     130.68 MB

     Check: negative core charge=   -0.000003

     Initial potential from superposition of free atoms

     starting charge      25.9999, renormalised to      26.0000
     Starting wfcs are   17 randomized atomic wfcs
     Checking if some PAW data can be deallocated... 

     total cpu time spent up to now is        4.7 secs

     Self-consistent Calculation

     iteration #  1     ecut=    50.00 Ry     beta= 0.40
     Davidson diagonalization with overlap

---- Real-time Memory Report at c_bands before calling an iterative solver
           109 MiB given to the printing process from OS
             0 MiB allocation reported by mallinfo(arena+hblkhd)
          4841 MiB available memory on the node where the printing process lives
------------------
     ethr =  1.00E-02,  avg # of iterations =  2.8

     total cpu time spent up to now is       18.5 secs

     WARNING: integrated charge=    26.00000926, expected=    26.00000000

     total energy              =    -503.03997301 Ry
     estimated scf accuracy    <       0.46845184 Ry

     iteration #  2     ecut=    50.00 Ry     beta= 0.40
     Davidson diagonalization with overlap

---- Real-time Memory Report at c_bands before calling an iterative solver
           170 MiB given to the printing process from OS
             0 MiB allocation reported by mallinfo(arena+hblkhd)
          4849 MiB available memory on the node where the printing process lives
------------------
     ethr =  1.80E-03,  avg # of iterations =  2.1
     Minimization algorithm failed to find Fermi energy: reverting to bisection
     Possible cause: smearing is larger than the electronic band-gap.

     total cpu time spent up to now is       28.0 secs

     WARNING: integrated charge=    26.00000655, expected=    26.00000000

     total energy              =    -503.16693746 Ry
     estimated scf accuracy    <       0.07967051 Ry

     iteration #  3     ecut=    50.00 Ry     beta= 0.40
     Davidson diagonalization with overlap

---- Real-time Memory Report at c_bands before calling an iterative solver
           170 MiB given to the printing process from OS
             0 MiB allocation reported by mallinfo(arena+hblkhd)
          4844 MiB available memory on the node where the printing process lives
------------------
     ethr =  3.06E-04,  avg # of iterations =  2.2

     total cpu time spent up to now is       38.6 secs

     WARNING: integrated charge=    26.00481397, expected=    26.00000000

     total energy              =    -503.17133042 Ry
     estimated scf accuracy    <       0.00500497 Ry

     iteration #  4     ecut=    50.00 Ry     beta= 0.40
     Davidson diagonalization with overlap

---- Real-time Memory Report at c_bands before calling an iterative solver
           171 MiB given to the printing process from OS
             0 MiB allocation reported by mallinfo(arena+hblkhd)
          4874 MiB available memory on the node where the printing process lives
------------------
     ethr =  1.92E-05,  avg # of iterations =  2.1

     total cpu time spent up to now is       50.1 secs

     WARNING: integrated charge=    26.00802008, expected=    26.00000000

     total energy              =    -503.17134350 Ry
     estimated scf accuracy    <       0.00066452 Ry

     iteration #  5     ecut=    50.00 Ry     beta= 0.40
     Davidson diagonalization with overlap

---- Real-time Memory Report at c_bands before calling an iterative solver
           171 MiB given to the printing process from OS
             0 MiB allocation reported by mallinfo(arena+hblkhd)
          4873 MiB available memory on the node where the printing process lives
------------------
     ethr =  2.56E-06,  avg # of iterations =  2.3

     total cpu time spent up to now is       59.7 secs

     WARNING: integrated charge=    26.00853883, expected=    26.00000000

     total energy              =    -503.17136566 Ry
     estimated scf accuracy    <       0.00000753 Ry

     iteration #  6     ecut=    50.00 Ry     beta= 0.40
     Davidson diagonalization with overlap

---- Real-time Memory Report at c_bands before calling an iterative solver
           171 MiB given to the printing process from OS
             0 MiB allocation reported by mallinfo(arena+hblkhd)
          4871 MiB available memory on the node where the printing process lives
------------------
     ethr =  2.90E-08,  avg # of iterations =  2.1

     total cpu time spent up to now is       70.9 secs

     WARNING: integrated charge=    26.00873300, expected=    26.00000000

     total energy              =    -503.17137767 Ry
     estimated scf accuracy    <       0.00000813 Ry

     iteration #  7     ecut=    50.00 Ry     beta= 0.40
     Davidson diagonalization with overlap

---- Real-time Memory Report at c_bands before calling an iterative solver
           171 MiB given to the printing process from OS
             0 MiB allocation reported by mallinfo(arena+hblkhd)
          4871 MiB available memory on the node where the printing process lives
------------------
     ethr =  2.90E-08,  avg # of iterations =  1.7

     total cpu time spent up to now is       81.4 secs

     WARNING: integrated charge=    26.00878655, expected=    26.00000000

     total energy              =    -503.17137556 Ry
     estimated scf accuracy    <       0.00000080 Ry

     iteration #  8     ecut=    50.00 Ry     beta= 0.40
     Davidson diagonalization with overlap

---- Real-time Memory Report at c_bands before calling an iterative solver
           171 MiB given to the printing process from OS
             0 MiB allocation reported by mallinfo(arena+hblkhd)
          4869 MiB available memory on the node where the printing process lives
------------------
     ethr =  3.08E-09,  avg # of iterations =  2.0

     total cpu time spent up to now is       92.1 secs

     WARNING: integrated charge=    26.00876989, expected=    26.00000000

     total energy              =    -503.17137442 Ry
     estimated scf accuracy    <       0.00000004 Ry

     iteration #  9     ecut=    50.00 Ry     beta= 0.40
     Davidson diagonalization with overlap

---- Real-time Memory Report at c_bands before calling an iterative solver
           174 MiB given to the printing process from OS
             0 MiB allocation reported by mallinfo(arena+hblkhd)
          4864 MiB available memory on the node where the printing process lives
------------------
     ethr =  1.40E-10,  avg # of iterations =  2.0

     total cpu time spent up to now is      102.7 secs

     End of self-consistent calculation

          k = 0.0000 0.0000 0.0000 (   755 PWs)   bands (ev):

  -112.3526 -66.5363 -66.5336 -66.5311  -6.0123   5.9399   5.9401   7.0050
     7.0050   7.0059  11.1963  11.2297  11.2641  11.5388  26.4738  26.4750
    29.6338

     occupation numbers 
     1.0000   1.0000   1.0000   1.0000   1.0000   1.0000   1.0000   1.0000
     1.0000   1.0000   1.0000   1.0000   1.0000   1.0000   0.0000   0.0000
     0.0000

          k = 0.0000 0.0000 0.0833 (   769 PWs)   bands (ev):

  -112.3526 -66.5364 -66.5349 -66.5311  -5.9436   5.9489   5.9537   6.9578
     6.9618   7.0073  10.1236  11.2808  11.3434  12.5884  25.8080  26.5754
    29.5528

     occupation numbers 
     1.0000   1.0000   1.0000   1.0000   1.0000   1.0000   1.0000   1.0000
     1.0000   1.0000   1.0000   1.0000   1.0000   1.0397   0.0000   0.0000
     0.0000

          k = 0.0000 0.0000 0.1667 (   775 PWs)   bands (ev):

  -112.3524 -66.5382 -66.5362 -66.5309  -5.7481   5.9385   5.9729   6.8362
     6.8477   7.0134   8.9656  11.5074  11.5570  13.6747  24.4335  26.8783
    29.3041

     occupation numbers 
     1.0000   1.0000   1.0000   1.0000   1.0000   1.0000   1.0000   1.0000
     1.0000   1.0000   1.0000   1.0000   1.0000   0.0000   0.0000   0.0000
     0.0000

          k = 0.0000 0.0000 0.2500 (   793 PWs)   bands (ev):

  -112.3521 -66.5427 -66.5360 -66.5307  -5.4596   5.7115   6.0059   6.6838
     6.7037   7.0218   8.1571  11.8105  11.8435  14.6866  22.8420  27.3862
    28.9133

     occupation numbers 
     1.0000   1.0000   1.0000   1.0000   1.0000   1.0000   1.0000   1.0000
     1.0000   1.0000   1.0000   1.0000   1.0000   0.0000   0.0000   0.0000
     0.0000

          k = 0.0000 0.0000 0.3333 (   792 PWs)   bands (ev):

  -112.3518 -66.5469 -66.5357 -66.5305  -5.1407   5.1802   6.0391   6.5440
     6.5710   7.0301   7.8656  12.1103  12.1276  15.6860  21.2276  28.4600
    28.4717

     occupation numbers 
     1.0000   1.0000   1.0000   1.0000   1.0000   1.0000   1.0000   1.0000
     1.0000   1.0000   1.0000   1.0000   1.0000   0.0000   0.0000   0.0000
     0.0000

          k = 0.0000 0.0000 0.4167 (   800 PWs)   bands (ev):

  -112.3516 -66.5502 -66.5356 -66.5303  -4.8823   4.6531   6.0635   6.4482
     6.4795   7.0362   7.8530  12.3297  12.3358  16.7163  19.7407  28.0804
    28.1248

     occupation numbers 
     1.0000   1.0000   1.0000   1.0000   1.0000   1.0000   1.0000   1.0000
     1.0000   1.0000   1.0000   1.0003   1.0004   0.0000   0.0000   0.0000
     0.0000

          k = 0.0000 0.0000-0.5000 (   804 PWs)   bands (ev):

  -112.3515 -66.5514 -66.5355 -66.5303  -4.7814   4.4428   6.0724   6.4143
     6.4472   7.0385   7.8732  12.4104  12.4123  17.4455  18.8438  27.9379
    27.9932

     occupation numbers 
     1.0000   1.0000   1.0000   1.0000   1.0000   1.0000   1.0000   1.0000
     1.0000   1.0000   1.0000   1.0022   1.0023   0.0000   0.0000   0.0000
     0.0000

          k =-0.0004 0.0833 0.0000 (   770 PWs)   bands (ev):

  -112.3526 -66.5371 -66.5337 -66.5316  -5.9436   5.9487   5.9539   6.9596
     6.9598   7.0076  10.1230  11.3117  11.3130  12.5885  25.8078  26.5744
    29.6197

     occupation numbers 
     1.0000   1.0000   1.0000   1.0000   1.0000   1.0000   1.0000   1.0000
     1.0000   1.0000   1.0000   1.0000   1.0000   1.0398   0.0000   0.0000
     0.0000

          k =-0.0004 0.0833 0.0833 (   772 PWs)   bands (ev):

  -112.3525 -66.5370 -66.5349 -66.5316  -5.8761   5.9582   5.9719   6.9093
     6.9406   6.9872   9.8234  11.0113  11.3892  13.2113  25.6877  26.1483
    29.5320

     occupation numbers 
     1.0000   1.0000   1.0000   1.0000   1.0000   1.0000   1.0000   1.0000
     1.0000   1.0000   1.0000   1.0000   1.0000   0.0207   0.0000   0.0000
     0.0000

          k =-0.0004 0.0833 0.1667 (   778 PWs)   bands (ev):

  -112.3523 -66.5381 -66.5368 -66.5314  -5.6840   5.9562   5.9976   6.7838
     6.8403   6.9859   8.9659  11.0463  11.5914  14.1706  24.4808  26.1750
    29.3426

     occupation numbers 
     1.0000   1.0000   1.0000   1.0000   1.0000   1.0000   1.0000   1.0000
     1.0000   1.0000   1.0000   1.0000   1.0000   0.0000   0.0000   0.0000
     0.0000

          k =-0.0004 0.0833 0.2500 (   786 PWs)   bands (ev):

  -112.3520 -66.5425 -66.5366 -66.5311  -5.4012   5.7547   6.0276   6.6508
     6.7030   6.9957   8.2081  11.3171  11.8630  15.1090  22.8677  26.4298
    28.9997

     occupation numbers 
     1.0000   1.0000   1.0000   1.0000   1.0000   1.0000   1.0000   1.0000
     1.0000   1.0000   1.0000   1.0000   1.0000   0.0000   0.0000   0.0000
     0.0000

          k =-0.0004 0.0833 0.3333 (   787 PWs)   bands (ev):

  -112.3517 -66.5468 -66.5363 -66.5308  -5.0892   5.2565   6.0631   6.5400
     6.5767   7.0065   7.8916  11.6262  12.1323  16.0426  21.2238  26.6847
    28.5989

     occupation numbers 
     1.0000   1.0000   1.0000   1.0000   1.0000   1.0000   1.0000   1.0000
     1.0000   1.0000   1.0000   1.0000   1.0000   0.0000   0.0000   0.0000
     0.0000

          k =-0.0004 0.0833 0.4167 (   795 PWs)   bands (ev):

  -112.3515 -66.5500 -66.5361 -66.5307  -4.8373   4.7563   6.0915   6.4529
     6.4894   7.0145   7.8594  11.8661  12.3297  17.0355  19.7029  26.8300
    28.2772

     occupation numbers 
     1.0000   1.0000   1.0000   1.0000   1.0000   1.0000   1.0000   1.0000
     1.0000   1.0000   1.0000   1.0000   1.0003   0.0000   0.0000   0.0000
     0.0000

          k =-0.0004 0.0833-0.5000 (   798 PWs)   bands (ev):

  -112.3515 -66.5513 -66.5361 -66.5306  -4.7390   4.5552   6.1027   6.4196
     6.4579   7.0175   7.8744  11.9569  12.4021  17.8795  18.6641  26.8648
    28.1546

     occupation numbers 
     1.0000   1.0000   1.0000   1.0000   1.0000   1.0000   1.0000   1.0000
     1.0000   1.0000   1.0000   1.0000   1.0019   0.0000   0.0000   0.0000
     0.0000

          k =-0.0008 0.1667 0.0000 (   778 PWs)   bands (ev):

  -112.3524 -66.5394 -66.5335 -66.5324  -5.7481   5.9387   5.9727   6.8419
     6.8420   7.0137   8.9653  11.5318  11.5326  13.6747  24.4325  26.8769
    29.3522

     occupation numbers 
     1.0000   1.0000   1.0000   1.0000   1.0000   1.0000   1.0000   1.0000
     1.0000   1.0000   1.0000   1.0000   1.0000   0.0000   0.0000   0.0000
     0.0000

          k =-0.0008 0.1667 0.0833 (   779 PWs)   bands (ev):

  -112.3523 -66.5394 -66.5347 -66.5323  -5.6840   5.9563   5.9974   6.7844
     6.8395   6.9861   8.9658  11.0470  11.5907  14.1706  24.4798  26.1750
    29.3427

     occupation numbers 
     1.0000   1.0000   1.0000   1.0000   1.0000   1.0000   1.0000   1.0000
     1.0000   1.0000   1.0000   1.0000   1.0000   0.0000   0.0000   0.0000
     0.0000

          k =-0.0008 0.1667 0.1667 (   783 PWs)   bands (ev):

  -112.3521 -66.5392 -66.5379 -66.5321  -5.5024   5.9534   6.0723   6.6525
     6.8090   6.9381   8.7969  10.4337  11.7473  15.0298  24.5732  24.6821
    29.2972

     occupation numbers 
     1.0000   1.0000   1.0000   1.0000   1.0000   1.0000   1.0000   1.0000
     1.0000   1.0000   1.0000   1.0000   1.0000   0.0000   0.0000   0.0000
     0.0000

          k =-0.0008 0.1667 0.2500 (   787 PWs)   bands (ev):

  -112.3518 -66.5422 -66.5389 -66.5318  -5.2362   5.8239   6.1147   6.5596
     6.7163   6.9307   8.3143  10.3677  11.9583  15.8656  22.8979  24.7954
    29.1737

     occupation numbers 
     1.0000   1.0000   1.0000   1.0000   1.0000   1.0000   1.0000   1.0000
     1.0000   1.0000   1.0000   1.0000   1.0000   0.0000   0.0000   0.0000
     0.0000

          k =-0.0008 0.1667 0.3333 (   788 PWs)   bands (ev):

  -112.3515 -66.5465 -66.5385 -66.5315  -4.9445   5.4516   6.1436   6.5174
     6.6105   6.9435   7.9625  10.5976  12.1675  16.6519  21.2216  24.9858
    28.9777

     occupation numbers 
     1.0000   1.0000   1.0000   1.0000   1.0000   1.0000   1.0000   1.0000
     1.0000   1.0000   1.0000   1.0000   1.0000   0.0000   0.0000   0.0000
     0.0000

          k =-0.0008 0.1667 0.4167 (   785 PWs)   bands (ev):

  -112.3513 -66.5497 -66.5382 -66.5313  -4.7108   5.0468   6.1752   6.4551
     6.5338   6.9559   7.8762  10.8389  12.3204  17.4508  19.7681  25.1351
    28.7903

     occupation numbers 
     1.0000   1.0000   1.0000   1.0000   1.0000   1.0000   1.0000   1.0000
     1.0000   1.0000   1.0000   1.0000   1.0003   0.0000   0.0000   0.0000
     0.0000

          k =-0.0008 0.1667-0.5000 (   796 PWs)   bands (ev):

  -112.3512 -66.5510 -66.5382 -66.5312  -4.6202   4.8777   6.1906   6.4224
     6.5060   6.9607   7.8758  10.9392  12.3765  18.1165  18.8598  25.1925
    28.7132

     occupation numbers 
     1.0000   1.0000   1.0000   1.0000   1.0000   1.0000   1.0000   1.0000
     1.0000   1.0000   1.0000   1.0000   1.0010   0.0000   0.0000   0.0000
     0.0000

          k =-0.0013 0.2500 0.0000 (   792 PWs)   bands (ev):

  -112.3521 -66.5434 -66.5333 -66.5326  -5.4596   5.7116   6.0056   6.6938
     6.6940   7.0221   8.1570  11.8267  11.8270  14.6866  22.8408  27.3832
    28.9319

     occupation numbers 
     1.0000   1.0000   1.0000   1.0000   1.0000   1.0000   1.0000   1.0000
     1.0000   1.0000   1.0000   1.0000   1.0000   0.0000   0.0000   0.0000
     0.0000

          k =-0.0013 0.2500 0.0833 (   783 PWs)   bands (ev):

  -112.3520 -66.5433 -66.5344 -66.5325  -5.4012   5.7548   6.0273   6.6526
     6.7013   6.9960   8.2081  11.3174  11.8624  15.1090  22.8666  26.4295
    28.9930

     occupation numbers 
     1.0000   1.0000   1.0000   1.0000   1.0000   1.0000   1.0000   1.0000
     1.0000   1.0000   1.0000   1.0000   1.0000   0.0000   0.0000   0.0000
     0.0000

          k =-0.0013 0.2500 0.1667 (   787 PWs)   bands (ev):

  -112.3518 -66.5430 -66.5376 -66.5323  -5.2362   5.8239   6.1146   6.5600
     6.7161   6.9308   8.3144  10.3677  11.9581  15.8656  22.8969  24.7959
    29.1701

     occupation numbers 
     1.0000   1.0000   1.0000   1.0000   1.0000   1.0000   1.0000   1.0000
     1.0000   1.0000   1.0000   1.0000   1.0000   0.0000   0.0000   0.0000
     0.0000

          k =-0.0013 0.2500 0.2500 (   782 PWs)   bands (ev):

  -112.3515 -66.5426 -66.5418 -66.5320  -4.9960   5.8036   6.2523   6.4910
     6.7112   6.8708   8.3038   9.6575  12.0868  16.5278  22.4581  23.6699
    29.3815

     occupation numbers 
     1.0000   1.0000   1.0000   1.0000   1.0000   1.0000   1.0000   1.0000
     1.0000   1.0000   1.0000   1.0000   1.0000   0.0000   0.0000   0.0000
     0.0000

          k =-0.0013 0.2500 0.3333 (   787 PWs)   bands (ev):

  -112.3512 -66.5462 -66.5423 -66.5318  -4.7357   5.6582   6.3096   6.4987
     6.6581   6.8631   8.0531   9.5495  12.2140  16.9754  21.2383  23.6437
    29.5386

     occupation numbers 
     1.0000   1.0000   1.0000   1.0000   1.0000   1.0000   1.0000   1.0000
     1.0000   1.0000   1.0000   1.0000   1.0000   0.0000   0.0000   0.0000
     0.0000

          k =-0.0013 0.2500 0.4167 (   791 PWs)   bands (ev):

  -112.3510 -66.5494 -66.5421 -66.5315  -4.5296   5.4540   6.3252   6.4724
     6.6017   6.8773   7.8956   9.7095  12.3063  17.1876  20.3203  23.7982
    29.6046

     occupation numbers 
     1.0000   1.0000   1.0000   1.0000   1.0000   1.0000   1.0000   1.0000
     1.0000   1.0000   1.0000   1.0000   1.0002   0.0000   0.0000   0.0000
     0.0000

          k =-0.0013 0.2500-0.5000 (   790 PWs)   bands (ev):

  -112.3510 -66.5505 -66.5420 -66.5315  -4.4503   5.3553   6.3349   6.4430
     6.5797   6.8843   7.8690   9.7987  12.3400  17.2336  20.0026  23.8726
    29.6180

     occupation numbers 
     1.0000   1.0000   1.0000   1.0000   1.0000   1.0000   1.0000   1.0000
     1.0000   1.0000   1.0000   1.0000   1.0004   0.0000   0.0000   0.0000
     0.0000

          k =-0.0017 0.3333 0.0000 (   792 PWs)   bands (ev):

  -112.3518 -66.5475 -66.5330 -66.5326  -5.1406   5.1803   6.0386   6.5575
     6.5579   7.0305   7.8655  12.1185  12.1187  15.6859  21.2267  28.0758
    28.4656

     occupation numbers 
     1.0000   1.0000   1.0000   1.0000   1.0000   1.0000   1.0000   1.0000
     1.0000   1.0000   1.0000   1.0000   1.0000   0.0000   0.0000   0.0000
     0.0000

          k =-0.0017 0.3333 0.0833 (   789 PWs)   bands (ev):

  -112.3517 -66.5474 -66.5341 -66.5325  -5.0892   5.2566   6.0626   6.5446
     6.5725   7.0068   7.8916  11.6262  12.1317  16.0425  21.2228  26.6841
    28.5903

     occupation numbers 
     1.0000   1.0000   1.0000   1.0000   1.0000   1.0000   1.0000   1.0000
     1.0000   1.0000   1.0000   1.0000   1.0000   0.0000   0.0000   0.0000
     0.0000

          k =-0.0017 0.3333 0.1667 (   789 PWs)   bands (ev):

  -112.3515 -66.5471 -66.5373 -66.5323  -4.9445   5.4517   6.1432   6.5181
     6.6101   6.9436   7.9625  10.5975  12.1671  16.6519  21.2206  24.9861
    28.9708

     occupation numbers 
     1.0000   1.0000   1.0000   1.0000   1.0000   1.0000   1.0000   1.0000
     1.0000   1.0000   1.0000   1.0000   1.0000   0.0000   0.0000   0.0000
     0.0000

          k =-0.0017 0.3333 0.2500 (   785 PWs)   bands (ev):

  -112.3512 -66.5467 -66.5415 -66.5319  -4.7357   5.6583   6.3094   6.4987
     6.6585   6.8630   8.0532   9.5494  12.2138  16.9754  21.2373  23.6443
    29.5326

     occupation numbers 
     1.0000   1.0000   1.0000   1.0000   1.0000   1.0000   1.0000   1.0000
     1.0000   1.0000   1.0000   1.0000   1.0000   0.0000   0.0000   0.0000
     0.0000

          k =-0.0017 0.3333 0.3333 (   785 PWs)   bands (ev):

  -112.3509 -66.5464 -66.5457 -66.5317  -4.5119   5.7763   6.4953   6.5254
     6.6889   6.8033   8.0647   8.8438  12.2586  16.8144  21.2324  22.9963
    30.0177

     occupation numbers 
     1.0000   1.0000   1.0000   1.0000   1.0000   1.0000   1.0000   1.0000
     1.0000   1.0000   1.0000   1.0000   1.0000   0.0000   0.0000   0.0000
     0.0000

          k =-0.0017 0.3333 0.4167 (   791 PWs)   bands (ev):

  -112.3507 -66.5490 -66.5461 -66.5315  -4.3370   5.8286   6.5082   6.6023
     6.6712   6.8013   7.8993   8.7251  12.2905  16.4057  21.1617  22.9520
    29.4634

     occupation numbers 
     1.0000   1.0000   1.0000   1.0000   1.0000   1.0000   1.0000   1.0000
     1.0000   1.0000   1.0000   1.0000   1.0001   0.0000   0.0000   0.0000
     0.0000

          k =-0.0017 0.3333-0.5000 (   790 PWs)   bands (ev):

  -112.3507 -66.5501 -66.5461 -66.5313  -4.2703   5.8473   6.5162   6.5748
     6.6563   6.8095   7.8351   8.7652  12.3019  16.1991  21.1216  23.0212
    29.1996

     occupation numbers 
     1.0000   1.0000   1.0000   1.0000   1.0000   1.0000   1.0000   1.0000
     1.0000   1.0000   1.0000   1.0000   1.0002   0.0000   0.0000   0.0000
     0.0000

          k =-0.0021 0.4167 0.0000 (   800 PWs)   bands (ev):

  -112.3516 -66.5506 -66.5329 -66.5325  -4.8823   4.6533   6.0627   6.4639
     6.4645   7.0366   7.8529  12.3321  12.3326  16.7158  19.7404  28.0890
    28.1016

     occupation numbers 
     1.0000   1.0000   1.0000   1.0000   1.0000   1.0000   1.0000   1.0000
     1.0000   1.0000   1.0000   1.0004   1.0004   0.0000   0.0000   0.0000
     0.0000

          k =-0.0021 0.4167 0.0833 (   792 PWs)   bands (ev):

  -112.3515 -66.5505 -66.5339 -66.5324  -4.8372   4.7565   6.0908   6.4599
     6.4830   7.0149   7.8594  11.8660  12.3290  17.0350  19.7024  26.8295
    28.2678

     occupation numbers 
     1.0000   1.0000   1.0000   1.0000   1.0000   1.0000   1.0000   1.0000
     1.0000   1.0000   1.0000   1.0000   1.0003   0.0000   0.0000   0.0000
     0.0000

          k =-0.0021 0.4167 0.1667 (   789 PWs)   bands (ev):

  -112.3513 -66.5502 -66.5370 -66.5321  -4.7108   5.0469   6.1746   6.4566
     6.5329   6.9561   7.8762  10.8388  12.3199  17.4508  19.7671  25.1353
    28.7811

     occupation numbers 
     1.0000   1.0000   1.0000   1.0000   1.0000   1.0000   1.0000   1.0000
     1.0000   1.0000   1.0000   1.0000   1.0003   0.0000   0.0000   0.0000
     0.0000

          k =-0.0021 0.4167 0.2500 (   791 PWs)   bands (ev):

  -112.3510 -66.5499 -66.5413 -66.5319  -4.5295   5.4540   6.3248   6.4726
     6.6021   6.8773   7.8957   9.7093  12.3060  17.1879  20.3186  23.7990
    29.5846

     occupation numbers 
     1.0000   1.0000   1.0000   1.0000   1.0000   1.0000   1.0000   1.0000
     1.0000   1.0000   1.0000   1.0000   1.0002   0.0000   0.0000   0.0000
     0.0000

          k =-0.0021 0.4167 0.3333 (   790 PWs)   bands (ev):

  -112.3507 -66.5495 -66.5456 -66.5315  -4.3370   5.8287   6.5079   6.6022
     6.6719   6.8010   7.8994   8.7250  12.2903  16.4058  21.1601  22.9533
    29.4604

     occupation numbers 
     1.0000   1.0000   1.0000   1.0000   1.0000   1.0000   1.0000   1.0000
     1.0000   1.0000   1.0000   1.0000   1.0001   0.0000   0.0000   0.0000
     0.0000

          k =-0.0021 0.4167 0.4167 (   790 PWs)   bands (ev):

  -112.3505 -66.5492 -66.5487 -66.5313  -4.1878   6.0539   6.5950   6.7159
     6.7539   6.9000   7.8306   8.1038  12.2777  15.6506  21.8512  22.5678
    28.7409

     occupation numbers 
     1.0000   1.0000   1.0000   1.0000   1.0000   1.0000   1.0000   1.0000
     1.0000   1.0000   1.0000   1.0000   1.0001   0.0000   0.0000   0.0000
     0.0000

          k =-0.0021 0.4167-0.5000 (   786 PWs)   bands (ev):

  -112.3505 -66.5498 -66.5491 -66.5312  -4.1313   6.1332   6.6659   6.7148
     6.7549   6.9731   7.7399   7.9725  12.2729  15.3410  22.0355  22.5622
    28.4081

     occupation numbers 
     1.0000   1.0000   1.0000   1.0000   1.0000   1.0000   1.0000   1.0000
     1.0000   1.0000   1.0000   1.0000   1.0001   0.0000   0.0000   0.0000
     0.0000

          k = 0.0025-0.5000 0.0000 (   804 PWs)   bands (ev):

  -112.3515 -66.5518 -66.5328 -66.5325  -4.7813   4.4430   6.0715   6.4308
     6.4315   7.0389   7.8731  12.4106  12.4112  17.4442  18.8445  27.9555
    27.9644

     occupation numbers 
     1.0000   1.0000   1.0000   1.0000   1.0000   1.0000   1.0000   1.0000
     1.0000   1.0000   1.0000   1.0022   1.0023   0.0000   0.0000   0.0000
     0.0000

          k = 0.0025-0.5000 0.0833 (   794 PWs)   bands (ev):

  -112.3515 -66.5517 -66.5338 -66.5323  -4.7389   4.5554   6.1019   6.4273
[...]

     occupation numbers 
     1.0000   1.0000   1.0000   1.0000   1.0000   1.0000   1.0000   1.0000
     1.0000   1.0000   1.0000   1.0000   1.0000   0.0000   0.0000   0.0000
     0.0000

          k = 0.4146 0.4146 0.1667 (   785 PWs)   bands (ev):

  -112.3502 -66.5512 -66.5455 -66.5358  -4.0073   5.9425   6.1210   6.4696
     6.6601   7.1115   8.3569   8.9035  11.8063  15.9761  21.0439  21.6434
    28.8732

     occupation numbers 
     1.0000   1.0000   1.0000   1.0000   1.0000   1.0000   1.0000   1.0000
     1.0000   1.0000   1.0000   1.0000   1.0000   0.0000   0.0000   0.0000
     0.0000

          k = 0.4146 0.4146 0.2500 (   785 PWs)   bands (ev):

  -112.3500 -66.5509 -66.5452 -66.5400  -3.8119   5.7222   5.8066   6.3446
     6.7140   7.1412   8.9163   9.5943  11.4246  16.3915  20.1602  20.6204
    26.9918

     occupation numbers 
     1.0000   1.0000   1.0000   1.0000   1.0000   1.0000   1.0000   1.0000
     1.0000   1.0000   1.0000   1.0000   1.0000   0.0000   0.0000   0.0000
     0.0000

          k = 0.4146 0.4146 0.3333 (   780 PWs)   bands (ev):

  -112.3497 -66.5505 -66.5447 -66.5442  -3.6017   5.5414   5.5713   5.9721
     6.9727   7.1571   9.5411  10.2967  11.0972  16.9050  19.2094  19.5567
    25.1570

     occupation numbers 
     1.0000   1.0000   1.0000   1.0000   1.0000   1.0000   1.0000   1.0000
     1.0000   1.0000   1.0000   1.0000   1.0000   0.0000   0.0000   0.0000
     0.0000

          k = 0.4146 0.4146 0.4167 (   775 PWs)   bands (ev):

  -112.3494 -66.5501 -66.5473 -66.5444  -3.4367   5.4268   5.4291   5.6676
     7.1644   7.1658  10.1210  10.8350  10.8603  17.2831  18.6078  18.7257
    23.7355

     occupation numbers 
     1.0000   1.0000   1.0000   1.0000   1.0000   1.0000   1.0000   1.0000
     1.0000   1.0000   1.0000   1.0000   1.0000   0.0000   0.0000   0.0000
     0.0000

          k = 0.4146 0.4146-0.5000 (   774 PWs)   bands (ev):

  -112.3494 -66.5500 -66.5484 -66.5443  -3.3737   5.3782   5.3931   5.5486
     7.1687   7.2345  10.5068  10.5931  11.0857  17.3188  18.4030  18.5407
    23.1589

     occupation numbers 
     1.0000   1.0000   1.0000   1.0000   1.0000   1.0000   1.0000   1.0000
     1.0000   1.0000   1.0000   1.0000   1.0000   0.0000   0.0000   0.0000
     0.0000

          k = 0.4192-0.5021 0.0000 (   788 PWs)   bands (ev):

  -112.3505 -66.5522 -66.5464 -66.5315  -4.1316   6.1333   6.6667   6.7138
     6.7551   6.9728   7.7392   7.9736  12.2728  15.3419  22.0242  22.5735
    28.4098

     occupation numbers 
     1.0000   1.0000   1.0000   1.0000   1.0000   1.0000   1.0000   1.0000
     1.0000   1.0000   1.0000   1.0000   1.0001   0.0000   0.0000   0.0000
     0.0000

          k = 0.4192-0.5021 0.0833 (   787 PWs)   bands (ev):

  -112.3504 -66.5521 -66.5463 -66.5327  -4.0834   6.1709   6.3914   6.5089
     6.7639   7.1065   7.9704   8.2046  12.1459  15.4323  21.8130  22.2715
    28.6848

     occupation numbers 
     1.0000   1.0000   1.0000   1.0000   1.0000   1.0000   1.0000   1.0000
     1.0000   1.0000   1.0000   1.0000   1.0000   0.0000   0.0000   0.0000
     0.0000

          k = 0.4192-0.5021 0.1667 (   783 PWs)   bands (ev):

  -112.3502 -66.5517 -66.5460 -66.5357  -3.9477   6.0313   6.0430   6.4795
     6.5849   7.1728   8.5201   8.7487  11.8349  15.7063  21.1902  21.4518
    29.2282

     occupation numbers 
     1.0000   1.0000   1.0000   1.0000   1.0000   1.0000   1.0000   1.0000
     1.0000   1.0000   1.0000   1.0000   1.0000   0.0000   0.0000   0.0000
     0.0000

          k = 0.4192-0.5021 0.2500 (   782 PWs)   bands (ev):

  -112.3499 -66.5514 -66.5456 -66.5399  -3.7513   5.7383   5.7513   6.2491
     6.7228   7.1982   9.2044   9.4196  11.4834  16.1667  20.2224  20.3724
    26.9607

     occupation numbers 
     1.0000   1.0000   1.0000   1.0000   1.0000   1.0000   1.0000   1.0000
     1.0000   1.0000   1.0000   1.0000   1.0000   0.0000   0.0000   0.0000
     0.0000

          k = 0.4192-0.5021 0.3333 (   784 PWs)   bands (ev):

  -112.3496 -66.5510 -66.5453 -66.5442  -3.5398   5.5125   5.5314   5.8636
     6.9855   7.2132   9.9168  10.0919  11.2055  16.7838  19.0974  19.3536
    24.8528

     occupation numbers 
     1.0000   1.0000   1.0000   1.0000   1.0000   1.0000   1.0000   1.0000
     1.0000   1.0000   1.0000   1.0000   1.0000   0.0000   0.0000   0.0000
     0.0000

          k = 0.4192-0.5021 0.4167 (   781 PWs)   bands (ev):

  -112.3494 -66.5507 -66.5472 -66.5450  -3.3736   5.3809   5.3956   5.5495
     7.1679   7.2351  10.5104  10.6024  11.0630  17.3488  18.3065  18.5705
    23.2061

     occupation numbers 
     1.0000   1.0000   1.0000   1.0000   1.0000   1.0000   1.0000   1.0000
     1.0000   1.0000   1.0000   1.0000   1.0000   0.0000   0.0000   0.0000
     0.0000

          k = 0.4192-0.5021-0.5000 (   780 PWs)   bands (ev):

  -112.3493 -66.5506 -66.5483 -66.5449  -3.3100   5.3495   5.3496   5.4171
     7.2025   7.2753  10.7579  10.7580  11.0631  17.4101  18.2550  18.2589
    22.5127

     occupation numbers 
     1.0000   1.0000   1.0000   1.0000   1.0000   1.0000   1.0000   1.0000
     1.0000   1.0000   1.0000   1.0000   1.0000   0.0000   0.0000   0.0000
     0.0000

          k = 0.4188-0.4188 0.0000 (   792 PWs)   bands (ev):

  -112.3505 -66.5515 -66.5461 -66.5316  -4.1859   6.0511   6.5976   6.7171
     6.7508   6.8885   7.8410   8.0929  12.2815  15.6694  21.9132  22.4883
    28.7598

     occupation numbers 
     1.0000   1.0000   1.0000   1.0000   1.0000   1.0000   1.0000   1.0000
     1.0000   1.0000   1.0000   1.0000   1.0001   0.0000   0.0000   0.0000
     0.0000

          k = 0.4188-0.4188 0.0833 (   789 PWs)   bands (ev):

  -112.3505 -66.5514 -66.5460 -66.5327  -4.1381   6.0657   6.4365   6.4721
     6.7877   7.0305   7.9821   8.3200  12.1450  15.7546  21.7353  22.2213
    28.9620

     occupation numbers 
     1.0000   1.0000   1.0000   1.0000   1.0000   1.0000   1.0000   1.0000
     1.0000   1.0000   1.0000   1.0000   1.0000   0.0000   0.0000   0.0000
     0.0000

          k = 0.4188-0.4188 0.1667 (   785 PWs)   bands (ev):

  -112.3502 -66.5511 -66.5456 -66.5358  -4.0037   5.9407   6.1140   6.4625
     6.6698   7.1059   8.3812   8.8660  11.8099  16.0088  21.1738  21.4861
    28.8198

     occupation numbers 
     1.0000   1.0000   1.0000   1.0000   1.0000   1.0000   1.0000   1.0000
     1.0000   1.0000   1.0000   1.0000   1.0000   0.0000   0.0000   0.0000
     0.0000

          k = 0.4188-0.4188 0.2500 (   785 PWs)   bands (ev):

  -112.3500 -66.5508 -66.5452 -66.5400  -3.8092   5.7195   5.8047   6.3487
     6.7154   7.1378   8.9420   9.5507  11.4253  16.4197  20.2857  20.4628
    27.0004

     occupation numbers 
     1.0000   1.0000   1.0000   1.0000   1.0000   1.0000   1.0000   1.0000
     1.0000   1.0000   1.0000   1.0000   1.0000   0.0000   0.0000   0.0000
     0.0000

          k = 0.4188-0.4188 0.3333 (   783 PWs)   bands (ev):

  -112.3497 -66.5504 -66.5449 -66.5442  -3.6002   5.5385   5.5736   5.9796
     6.9732   7.1548   9.5666  10.2504  11.0970  16.9282  19.3206  19.3964
    25.2012

     occupation numbers 
     1.0000   1.0000   1.0000   1.0000   1.0000   1.0000   1.0000   1.0000
     1.0000   1.0000   1.0000   1.0000   1.0000   0.0000   0.0000   0.0000
     0.0000

          k = 0.4188-0.4188 0.4167 (   785 PWs)   bands (ev):

  -112.3495 -66.5502 -66.5473 -66.5446  -3.4361   5.4292   5.4318   5.6734
     7.1640   7.1656  10.1425  10.8146  10.8386  17.3199  18.5613  18.6798
    23.8124

     occupation numbers 
     1.0000   1.0000   1.0000   1.0000   1.0000   1.0000   1.0000   1.0000
     1.0000   1.0000   1.0000   1.0000   1.0000   0.0000   0.0000   0.0000
     0.0000

          k = 0.4188-0.4188-0.5000 (   786 PWs)   bands (ev):

  -112.3494 -66.5501 -66.5484 -66.5445  -3.3735   5.3841   5.3975   5.5505
     7.1669   7.2359  10.5186  10.6066  11.0411  17.3794  18.2363  18.5734
    23.2532

     occupation numbers 
     1.0000   1.0000   1.0000   1.0000   1.0000   1.0000   1.0000   1.0000
     1.0000   1.0000   1.0000   1.0000   1.0000   0.0000   0.0000   0.0000
     0.0000

          k =-0.4975-0.4975 0.0000 (   780 PWs)   bands (ev):

  -112.3504 -66.5526 -66.5469 -66.5314  -4.0790   6.2088   6.7323   6.7383
     6.7967   7.2589   7.5910   7.6435  12.2620  15.0025  22.3402  22.4982
    28.0361

     occupation numbers 
     1.0000   1.0000   1.0000   1.0000   1.0000   1.0000   1.0000   1.0000
     1.0000   1.0000   1.0000   1.0000   1.0001   0.0000   0.0000   0.0000
     0.0000

          k =-0.4975-0.4975 0.0833 (   790 PWs)   bands (ev):

  -112.3503 -66.5525 -66.5468 -66.5327  -4.0303   6.2774   6.4706   6.4801
     6.7142   7.2600   7.9455   7.9943  12.1418  15.0940  22.0521  22.2099
    28.3579

     occupation numbers 
     1.0000   1.0000   1.0000   1.0000   1.0000   1.0000   1.0000   1.0000
     1.0000   1.0000   1.0000   1.0000   1.0000   0.0000   0.0000   0.0000
     0.0000

          k =-0.4975-0.4975 0.1667 (   782 PWs)   bands (ev):

  -112.3501 -66.5522 -66.5465 -66.5356  -3.8930   6.0776   6.0852   6.4630
     6.4801   7.2632   8.6099   8.6598  11.8457  15.3759  21.2655  21.4237
    29.2218

     occupation numbers 
     1.0000   1.0000   1.0000   1.0000   1.0000   1.0000   1.0000   1.0000
     1.0000   1.0000   1.0000   1.0000   1.0000   0.0000   0.0000   0.0000
     0.0000

          k =-0.4975-0.4975 0.2500 (   788 PWs)   bands (ev):

  -112.3498 -66.5519 -66.5462 -66.5399  -3.6938   5.7443   5.7480   6.1181
     6.7324   7.2676   9.3668   9.4183  11.5071  15.8670  20.1808  20.3415
    26.7725

     occupation numbers 
     1.0000   1.0000   1.0000   1.0000   1.0000   1.0000   1.0000   1.0000
     1.0000   1.0000   1.0000   1.0000   1.0000   0.0000   0.0000   0.0000
     0.0000

          k =-0.4975-0.4975 0.3333 (   776 PWs)   bands (ev):

  -112.3495 -66.5515 -66.5457 -66.5440  -3.4791   5.4995   5.4997   5.7259
     7.0022   7.2721  10.1232  10.1742  11.2309  16.5754  19.0547  19.2203
    24.4028

     occupation numbers 
     1.0000   1.0000   1.0000   1.0000   1.0000   1.0000   1.0000   1.0000
     1.0000   1.0000   1.0000   1.0000   1.0000   0.0000   0.0000   0.0000
     0.0000

          k =-0.4975-0.4975 0.4167 (   780 PWs)   bands (ev):

  -112.3493 -66.5513 -66.5471 -66.5454  -3.3100   5.3486   5.3507   5.4169
     7.2026   7.2752  10.7351  10.7827  11.0611  17.4162  18.1683  18.3403
    22.5119

     occupation numbers 
     1.0000   1.0000   1.0000   1.0000   1.0000   1.0000   1.0000   1.0000
     1.0000   1.0000   1.0000   1.0000   1.0000   0.0000   0.0000   0.0000
     0.0000

          k =-0.4975-0.4975-0.5000 (   788 PWs)   bands (ev):

  -112.3492 -66.5513 -66.5484 -66.5452  -3.2453   5.2980   5.2992   5.3007
     7.2764   7.2764  10.9832  11.0048  11.0285  17.8202  17.9087  17.9959
    21.6603

     occupation numbers 
     1.0000   1.0000   1.0000   1.0000   1.0000   1.0000   1.0000   1.0000
     1.0000   1.0000   1.0000   1.0000   1.0000   0.0000   0.0000   0.0000
     0.0000

     the Fermi energy is    12.9919 ev

     WARNING: integrated charge=    26.00876585, expected=    26.00000000

!    total energy              =    -503.17137455 Ry
     estimated scf accuracy    <          4.6E-09 Ry
     smearing contrib. (-TS)   =       0.00000882 Ry
     internal energy E=F+TS    =    -503.17138337 Ry

     The total energy is F=E-TS. E is the sum of the following terms:
     one-electron contribution =    -353.09615901 Ry
     hartree contribution      =     190.18816883 Ry
     xc contribution           =     -49.70821023 Ry
     ewald contribution        =    -281.02396905 Ry
     one-center paw contrib.   =      -9.53121390 Ry
      -> PAW hartree energy AE =      25.60282062 Ry
      -> PAW hartree energy PS =     -25.48904241 Ry
      -> PAW xc energy AE      =     -16.59411031 Ry
      -> PAW xc energy PS      =       6.94911820 Ry
      -> total E_H with PAW    =     190.30194704 Ry
      -> total E_XC with PAW   =     -59.35320235 Ry

     convergence has been achieved in   9 iterations

     Forces acting on atoms (cartesian axes, Ry/au):

     atom    1 type  2   force =     0.00000000    0.00000000    0.00000000
     atom    2 type  1   force =     0.00000000    0.00000000    0.00000000
     The non-local contrib.  to forces
     atom    1 type  2   force =     0.00000000    0.00000000    0.00000000
     atom    2 type  1   force =     0.00000000    0.00000000    0.00000000
     The ionic contribution  to forces
     atom    1 type  2   force =     0.00000000    0.00000000   -0.00000000
     atom    2 type  1   force =    -0.00000000   -0.00000000   -0.00000000
     The local contribution  to forces
     atom    1 type  2   force =     0.00000000    0.00000000    0.00000000
     atom    2 type  1   force =     0.00000000    0.00000000    0.00000000
     The core correction contribution to forces
     atom    1 type  2   force =     0.00000000    0.00000000    0.00000000
     atom    2 type  1   force =     0.00000000    0.00000000    0.00000000
     The Hubbard contrib.    to forces
     atom    1 type  2   force =     0.00000000    0.00000000    0.00000000
     atom    2 type  1   force =     0.00000000    0.00000000    0.00000000
     The SCF correction term to forces
     atom    1 type  2   force =     0.00000000   -0.00000000   -0.00000000
     atom    2 type  1   force =    -0.00000000    0.00000000    0.00000000

     Total force =     0.000000     Total SCF correction =     0.000000


     Computing stress (Cartesian axis) and pressure

          total   stress  (Ry/bohr**3)                   (kbar)     P=        8.95
   0.00006095   0.00004227   0.00000000            8.97        6.22        0.00
   0.00004227   0.00006095   0.00000000            6.22        8.97        0.00
   0.00000000   0.00000000   0.00006070            0.00        0.00        8.93

     kinetic stress (kbar)  42464.82     21.89      0.00
                               21.89  42464.82      0.00
                                0.00      0.00  42464.57

     local   stress (kbar)  10054.15    383.21     -0.00
                              383.21  10054.15      0.00
                               -0.00      0.00  10043.51

     nonloc. stress (kbar)   -941.31     -7.35      0.00
                               -7.35   -941.31      0.00
                                0.00      0.00   -941.17

     hartree stress (kbar)  70850.05   -141.38      0.00
                             -141.38  70850.05     -0.00
                                0.00     -0.00  70854.23

     exc-cor stress (kbar) -17250.91     -0.52     -0.00
                               -0.52 -17250.91     -0.00
                               -0.00     -0.00 -17250.90

     corecor stress (kbar)   -474.84     -0.06      0.00
                               -0.06   -474.84      0.00
                                0.00      0.00   -474.84

     ewald   stress (kbar)-104692.98   -249.57     -0.00
                             -249.57-104692.98     -0.00
                               -0.00     -0.00-104686.47

     hubbard stress (kbar)      0.00      0.00      0.00
                                0.00      0.00      0.00
                                0.00      0.00      0.00

     DFT-D   stress (kbar)      0.00      0.00      0.00
                                0.00      0.00      0.00
                                0.00      0.00      0.00

     XDM     stress (kbar)      0.00      0.00      0.00
                                0.00      0.00      0.00
                                0.00      0.00      0.00

     dft-nl  stress (kbar)      0.00      0.00      0.00
                                0.00      0.00      0.00
                                0.00      0.00      0.00

     TS-vdW  stress (kbar)      0.00      0.00      0.00
                                0.00      0.00      0.00
                                0.00      0.00      0.00

     MDB     stress (kbar)      0.00      0.00      0.00
                                0.00      0.00      0.00
                                0.00      0.00      0.00

     3D-RISM stress (kbar)      0.00      0.00      0.00
                                0.00      0.00      0.00
                                0.00      0.00      0.00


     Writing all to output data dir ./temp_cubic/aiida.save/ :
     XML data file, charge density, pseudopotentials, collected wavefunctions

     init_run     :     98.89s CPU      4.38s WALL (       1 calls)
     electrons    :   2322.76s CPU     98.06s WALL (       1 calls)
     forces       :     68.47s CPU      2.89s WALL (       1 calls)
     stress       :     24.87s CPU      1.26s WALL (       1 calls)

     Called by init_run:
     wfcinit      :     96.05s CPU      4.03s WALL (       1 calls)
     wfcinit:atom :      1.51s CPU      0.10s WALL (     301 calls)
     wfcinit:wfcr :     87.76s CPU      3.70s WALL (     301 calls)
     potinit      :      0.48s CPU      0.04s WALL (       1 calls)
     hinit0       :      1.22s CPU      0.23s WALL (       1 calls)

     Called by electrons:
     c_bands      :   2087.94s CPU     87.74s WALL (       9 calls)
     sum_band     :    225.53s CPU      9.71s WALL (       9 calls)
     v_of_rho     :      0.70s CPU      0.06s WALL (      10 calls)
     v_h          :      0.26s CPU      0.01s WALL (      10 calls)
     v_xc         :      0.82s CPU      0.06s WALL (      12 calls)
     newd         :      5.39s CPU      0.41s WALL (      10 calls)
     PAW_pot      :      2.65s CPU      0.10s WALL (      10 calls)
     mix_rho      :      0.01s CPU      0.01s WALL (       9 calls)

     Called by c_bands:
     init_us_2    :     33.18s CPU      1.43s WALL (    6321 calls)
     cegterg      :   1898.19s CPU     80.39s WALL (    2709 calls)

     Called by sum_band:
     sum_band:wei :      0.87s CPU      0.05s WALL (       9 calls)
     sum_band:loo :    220.88s CPU      9.24s WALL (       9 calls)
     sum_band:buf :      1.68s CPU      0.07s WALL (    2709 calls)
     sum_band:ini :      8.40s CPU      0.39s WALL (    2709 calls)
     sum_band:cal :     38.23s CPU      1.38s WALL (    2709 calls)
     sum_band:bec :      7.62s CPU      0.34s WALL (    2709 calls)
     addusdens    :      3.58s CPU      0.40s WALL (       9 calls)
                                        0.00s GPU  (       9 calls)
     addusd:skk   :      0.00s CPU      0.00s WALL (      18 calls)
                                        0.00s GPU  (      18 calls)

     Called by *egterg:
     cdiaghg      :     50.68s CPU      2.23s WALL (    8542 calls)
     cegterg:over :    110.24s CPU      4.83s WALL (    5833 calls)
     cegterg:upda :     91.87s CPU      3.76s WALL (    5833 calls)
     cegterg:last :    183.11s CPU      7.27s WALL (    5232 calls)
     h_psi        :   1336.73s CPU     56.51s WALL (    8843 calls)
     s_psi        :     90.45s CPU      3.93s WALL (    8843 calls)
     g_psi        :     26.15s CPU      1.16s WALL (    5833 calls)

     Called by h_psi:
     h_psi:calbec :     84.33s CPU      3.56s WALL (    8843 calls)
     vloc_psi     :   1131.65s CPU     47.62s WALL (    8843 calls)
     add_vuspsi   :     90.17s CPU      3.93s WALL (    8843 calls)

     General routines
     calbec       :    139.69s CPU      5.66s WALL (   13057 calls)
     fft          :      0.49s CPU      0.06s WALL (     153 calls)
     ffts         :      0.00s CPU      0.00s WALL (      19 calls)
     fftw         :    534.32s CPU     22.47s WALL (  269651 calls)
     interpolate  :      0.01s CPU      0.01s WALL (      10 calls)

     Parallel routines

     PAW routines
     PAW_pot      :      2.65s CPU      0.10s WALL (      10 calls)
     PAW_symme    :      0.06s CPU      0.00s WALL (      19 calls)

     PWSCF        :  42m23.28s CPU   1m48.31s WALL


   This run was terminated on:  17:22:58  13Jun2024            

=------------------------------------------------------------------------------=
   JOB DONE.
=------------------------------------------------------------------------------=
