
     Program PWSCF v.7.3.1 starts on  7Jun2024 at 21:16:17 

     This program is part of the open-source Quantum ESPRESSO suite
     for quantum simulation of materials; please cite
         "P. Giannozzi et al., J. Phys.:Condens. Matter 21 395502 (2009);
         "P. Giannozzi et al., J. Phys.:Condens. Matter 29 465901 (2017);
         "P. Giannozzi et al., J. Chem. Phys. 152 154105 (2020);
          URL http://www.quantum-espresso.org", 
     in publications or presentations arising from this work. More details at
     http://www.quantum-espresso.org/quote

     Parallel version (MPI & OpenMP), running on      24 processor cores
     Number of MPI processes:                 1
     Threads/MPI process:                    24

     MPI processes distributed on     1 nodes
     4734 MiB available memory on the printing compute node when the environment starts

     Waiting for input...
     Reading input from standard input

     Current dimensions of program PWSCF are:
     Max number of different atomic species (ntypx) = 10
     Max number of k-points (npk) =  40000
     Max angular momentum in pseudopotentials (lmaxx) =  4
     file O.pbe-n-kjpaw_psl.0.1.UPF: wavefunction(s)  2P renormalized
     Message from routine setup:
     using ibrav=0 with symmetry is DISCOURAGED, use correct ibrav instead

     Subspace diagonalization in iterative solution of the eigenvalue problem:
     a serial algorithm will be used


     G-vector sticks info
     --------------------
     sticks:   dense  smooth     PW     G-vecs:    dense   smooth      PW
     Sum         793     401    137                16831     5887    1141

     Using Slab Decomposition



     bravais-lattice index     =            0
     lattice parameter (alat)  =       4.9851  a.u.
     unit-cell volume          =     123.8883 (a.u.)^3
     number of atoms/cell      =            2
     number of atomic types    =            2
     number of electrons       =        26.00
     number of Kohn-Sham states=           17
     kinetic-energy cutoff     =      50.0000  Ry
     charge density cutoff     =     400.0000  Ry
     scf convergence threshold =      1.0E-08
     mixing beta               =       0.4000
     number of iterations used =            8  plain     mixing
     Exchange-correlation= SLA  PW   PBE  PBE
                           (   1   4   3   4   0   0   0)

     celldm(1)=   4.985133  celldm(2)=   0.000000  celldm(3)=   0.000000
     celldm(4)=   0.000000  celldm(5)=   0.000000  celldm(6)=   0.000000

     crystal axes: (cart. coord. in units of alat)
               a(1) = (   1.000000   0.000000   0.000000 )  
               a(2) = (   0.000000   1.000000   0.000000 )  
               a(3) = (   0.000000   0.000000   1.000000 )  

     reciprocal axes: (cart. coord. in units 2 pi/alat)
               b(1) = (  1.000000  0.000000  0.000000 )  
               b(2) = (  0.000000  1.000000  0.000000 )  
               b(3) = (  0.000000  0.000000  1.000000 )  


     PseudoPot. # 1 for O  read from file:
     ../SSSP_1.3.0_PBE_efficiency/O.pbe-n-kjpaw_psl.0.1.UPF
     MD5 check sum: 0234752ac141de4415c5fc33072bef88
     Pseudo is Projector augmented-wave + core cor, Zval =  6.0
     Generated using "atomic" code by A. Dal Corso  v.5.0.99 svn rev. 10869
     Shape of augmentation charge: BESSEL
     Using radial grid of 1095 points,  4 beta functions with: 
                l(1) =   0
                l(2) =   0
                l(3) =   1
                l(4) =   1
     Q(r) pseudized with 0 coefficients 


     PseudoPot. # 2 for Zn read from file:
     ../SSSP_1.3.0_PBE_efficiency/Zn_pbe_v1.uspp.F.UPF
     MD5 check sum: df62231357ef9e81f77b2b3087fa5675
     Pseudo is Ultrasoft, Zval = 20.0
     Generated by new atomic code, or converted to UPF format
     Using radial grid of  943 points,  6 beta functions with: 
                l(1) =   0
                l(2) =   0
                l(3) =   1
                l(4) =   1
                l(5) =   2
                l(6) =   2
     Q(r) pseudized with  8 coefficients,  rinner =    1.100   1.100   1.100
                                                       1.100   1.100

     atomic species   valence    mass     pseudopotential
     O                 6.00    15.99940     O ( 1.00)
     Zn               20.00    65.38000     Zn( 1.00)

     48 Sym. Ops., with inversion, found


                                    s                        frac. trans.

      isym =  1     identity                                     

 cryst.   s( 1) = (     1          0          0      )
                  (     0          1          0      )
                  (     0          0          1      )

 cart.    s( 1) = (  1.0000000  0.0000000  0.0000000 )
                  (  0.0000000  1.0000000  0.0000000 )
                  (  0.0000000  0.0000000  1.0000000 )


      isym =  2     180 deg rotation - cart. axis [0,0,1]        

 cryst.   s( 2) = (    -1          0          0      )
                  (     0         -1          0      )
                  (     0          0          1      )

 cart.    s( 2) = ( -1.0000000  0.0000000  0.0000000 )
                  (  0.0000000 -1.0000000  0.0000000 )
                  (  0.0000000  0.0000000  1.0000000 )


      isym =  3     180 deg rotation - cart. axis [0,1,0]        

 cryst.   s( 3) = (    -1          0          0      )
                  (     0          1          0      )
                  (     0          0         -1      )

 cart.    s( 3) = ( -1.0000000  0.0000000  0.0000000 )
                  (  0.0000000  1.0000000  0.0000000 )
                  (  0.0000000  0.0000000 -1.0000000 )


      isym =  4     180 deg rotation - cart. axis [1,0,0]        

 cryst.   s( 4) = (     1          0          0      )
                  (     0         -1          0      )
                  (     0          0         -1      )

 cart.    s( 4) = (  1.0000000  0.0000000  0.0000000 )
                  (  0.0000000 -1.0000000  0.0000000 )
                  (  0.0000000  0.0000000 -1.0000000 )


      isym =  5     180 deg rotation - cart. axis [1,1,0]        

 cryst.   s( 5) = (     0          1          0      )
                  (     1          0          0      )
                  (     0          0         -1      )

 cart.    s( 5) = (  0.0000000  1.0000000  0.0000000 )
                  (  1.0000000  0.0000000  0.0000000 )
                  (  0.0000000  0.0000000 -1.0000000 )


      isym =  6     180 deg rotation - cart. axis [1,-1,0]       

 cryst.   s( 6) = (     0         -1          0      )
                  (    -1          0          0      )
                  (     0          0         -1      )

 cart.    s( 6) = (  0.0000000 -1.0000000  0.0000000 )
                  ( -1.0000000  0.0000000  0.0000000 )
                  (  0.0000000  0.0000000 -1.0000000 )


      isym =  7      90 deg rotation - cart. axis [0,0,-1]       

 cryst.   s( 7) = (     0         -1          0      )
                  (     1          0          0      )
                  (     0          0          1      )

 cart.    s( 7) = (  0.0000000  1.0000000  0.0000000 )
                  ( -1.0000000  0.0000000  0.0000000 )
                  (  0.0000000  0.0000000  1.0000000 )


      isym =  8      90 deg rotation - cart. axis [0,0,1]        

 cryst.   s( 8) = (     0          1          0      )
                  (    -1          0          0      )
                  (     0          0          1      )

 cart.    s( 8) = (  0.0000000 -1.0000000  0.0000000 )
                  (  1.0000000  0.0000000  0.0000000 )
                  (  0.0000000  0.0000000  1.0000000 )


      isym =  9     180 deg rotation - cart. axis [1,0,1]        

 cryst.   s( 9) = (     0          0          1      )
                  (     0         -1          0      )
                  (     1          0          0      )

 cart.    s( 9) = (  0.0000000  0.0000000  1.0000000 )
                  (  0.0000000 -1.0000000  0.0000000 )
                  (  1.0000000  0.0000000  0.0000000 )


      isym = 10     180 deg rotation - cart. axis [-1,0,1]       

 cryst.   s(10) = (     0          0         -1      )
                  (     0         -1          0      )
                  (    -1          0          0      )

 cart.    s(10) = (  0.0000000  0.0000000 -1.0000000 )
                  (  0.0000000 -1.0000000  0.0000000 )
                  ( -1.0000000  0.0000000  0.0000000 )


      isym = 11      90 deg rotation - cart. axis [0,1,0]        

 cryst.   s(11) = (     0          0         -1      )
                  (     0          1          0      )
                  (     1          0          0      )

 cart.    s(11) = (  0.0000000  0.0000000  1.0000000 )
                  (  0.0000000  1.0000000  0.0000000 )
                  ( -1.0000000  0.0000000  0.0000000 )


      isym = 12      90 deg rotation - cart. axis [0,-1,0]       

 cryst.   s(12) = (     0          0          1      )
                  (     0          1          0      )
                  (    -1          0          0      )

 cart.    s(12) = (  0.0000000  0.0000000 -1.0000000 )
                  (  0.0000000  1.0000000  0.0000000 )
                  (  1.0000000  0.0000000  0.0000000 )


      isym = 13     180 deg rotation - cart. axis [0,1,1]        

 cryst.   s(13) = (    -1          0          0      )
                  (     0          0          1      )
                  (     0          1          0      )

 cart.    s(13) = ( -1.0000000  0.0000000  0.0000000 )
                  (  0.0000000  0.0000000  1.0000000 )
                  (  0.0000000  1.0000000  0.0000000 )


      isym = 14     180 deg rotation - cart. axis [0,1,-1]       

 cryst.   s(14) = (    -1          0          0      )
                  (     0          0         -1      )
                  (     0         -1          0      )

 cart.    s(14) = ( -1.0000000  0.0000000  0.0000000 )
                  (  0.0000000  0.0000000 -1.0000000 )
                  (  0.0000000 -1.0000000  0.0000000 )


      isym = 15      90 deg rotation - cart. axis [-1,0,0]       

 cryst.   s(15) = (     1          0          0      )
                  (     0          0         -1      )
                  (     0          1          0      )

 cart.    s(15) = (  1.0000000  0.0000000  0.0000000 )
                  (  0.0000000  0.0000000  1.0000000 )
                  (  0.0000000 -1.0000000  0.0000000 )


      isym = 16      90 deg rotation - cart. axis [1,0,0]        

 cryst.   s(16) = (     1          0          0      )
                  (     0          0          1      )
                  (     0         -1          0      )

 cart.    s(16) = (  1.0000000  0.0000000  0.0000000 )
                  (  0.0000000  0.0000000 -1.0000000 )
                  (  0.0000000  1.0000000  0.0000000 )


      isym = 17     120 deg rotation - cart. axis [-1,-1,-1]     

 cryst.   s(17) = (     0          0          1      )
                  (     1          0          0      )
                  (     0          1          0      )

 cart.    s(17) = (  0.0000000  1.0000000  0.0000000 )
                  (  0.0000000  0.0000000  1.0000000 )
                  (  1.0000000  0.0000000  0.0000000 )


      isym = 18     120 deg rotation - cart. axis [-1,1,1]       

 cryst.   s(18) = (     0          0         -1      )
                  (    -1          0          0      )
                  (     0          1          0      )

 cart.    s(18) = (  0.0000000 -1.0000000  0.0000000 )
                  (  0.0000000  0.0000000  1.0000000 )
                  ( -1.0000000  0.0000000  0.0000000 )


      isym = 19     120 deg rotation - cart. axis [1,1,-1]       

 cryst.   s(19) = (     0          0         -1      )
                  (     1          0          0      )
                  (     0         -1          0      )

 cart.    s(19) = (  0.0000000  1.0000000  0.0000000 )
                  (  0.0000000  0.0000000 -1.0000000 )
                  ( -1.0000000  0.0000000  0.0000000 )


      isym = 20     120 deg rotation - cart. axis [1,-1,1]       

 cryst.   s(20) = (     0          0          1      )
                  (    -1          0          0      )
                  (     0         -1          0      )

 cart.    s(20) = (  0.0000000 -1.0000000  0.0000000 )
                  (  0.0000000  0.0000000 -1.0000000 )
                  (  1.0000000  0.0000000  0.0000000 )


      isym = 21     120 deg rotation - cart. axis [1,1,1]        

 cryst.   s(21) = (     0          1          0      )
                  (     0          0          1      )
                  (     1          0          0      )

 cart.    s(21) = (  0.0000000  0.0000000  1.0000000 )
                  (  1.0000000  0.0000000  0.0000000 )
                  (  0.0000000  1.0000000  0.0000000 )


      isym = 22     120 deg rotation - cart. axis [-1,1,-1]      

 cryst.   s(22) = (     0         -1          0      )
                  (     0          0         -1      )
                  (     1          0          0      )

 cart.    s(22) = (  0.0000000  0.0000000  1.0000000 )
                  ( -1.0000000  0.0000000  0.0000000 )
                  (  0.0000000 -1.0000000  0.0000000 )


      isym = 23     120 deg rotation - cart. axis [1,-1,-1]      

 cryst.   s(23) = (     0         -1          0      )
                  (     0          0          1      )
                  (    -1          0          0      )

 cart.    s(23) = (  0.0000000  0.0000000 -1.0000000 )
                  ( -1.0000000  0.0000000  0.0000000 )
                  (  0.0000000  1.0000000  0.0000000 )


      isym = 24     120 deg rotation - cart. axis [-1,-1,1]      

 cryst.   s(24) = (     0          1          0      )
                  (     0          0         -1      )
                  (    -1          0          0      )

 cart.    s(24) = (  0.0000000  0.0000000 -1.0000000 )
                  (  1.0000000  0.0000000  0.0000000 )
                  (  0.0000000 -1.0000000  0.0000000 )


      isym = 25     inversion                                    

 cryst.   s(25) = (    -1          0          0      )
                  (     0         -1          0      )
                  (     0          0         -1      )

 cart.    s(25) = ( -1.0000000  0.0000000  0.0000000 )
                  (  0.0000000 -1.0000000  0.0000000 )
                  (  0.0000000  0.0000000 -1.0000000 )


      isym = 26     inv. 180 deg rotation - cart. axis [0,0,1]   

 cryst.   s(26) = (     1          0          0      )
                  (     0          1          0      )
                  (     0          0         -1      )

 cart.    s(26) = (  1.0000000  0.0000000  0.0000000 )
                  (  0.0000000  1.0000000  0.0000000 )
                  (  0.0000000  0.0000000 -1.0000000 )


      isym = 27     inv. 180 deg rotation - cart. axis [0,1,0]   

 cryst.   s(27) = (     1          0          0      )
                  (     0         -1          0      )
                  (     0          0          1      )

 cart.    s(27) = (  1.0000000  0.0000000  0.0000000 )
                  (  0.0000000 -1.0000000  0.0000000 )
                  (  0.0000000  0.0000000  1.0000000 )


      isym = 28     inv. 180 deg rotation - cart. axis [1,0,0]   

 cryst.   s(28) = (    -1          0          0      )
                  (     0          1          0      )
                  (     0          0          1      )

 cart.    s(28) = ( -1.0000000  0.0000000  0.0000000 )
                  (  0.0000000  1.0000000  0.0000000 )
                  (  0.0000000  0.0000000  1.0000000 )


      isym = 29     inv. 180 deg rotation - cart. axis [1,1,0]   

 cryst.   s(29) = (     0         -1          0      )
                  (    -1          0          0      )
                  (     0          0          1      )

 cart.    s(29) = (  0.0000000 -1.0000000  0.0000000 )
                  ( -1.0000000  0.0000000  0.0000000 )
                  (  0.0000000  0.0000000  1.0000000 )


      isym = 30     inv. 180 deg rotation - cart. axis [1,-1,0]  

 cryst.   s(30) = (     0          1          0      )
                  (     1          0          0      )
                  (     0          0          1      )

 cart.    s(30) = (  0.0000000  1.0000000  0.0000000 )
                  (  1.0000000  0.0000000  0.0000000 )
                  (  0.0000000  0.0000000  1.0000000 )


      isym = 31     inv.  90 deg rotation - cart. axis [0,0,-1]  

 cryst.   s(31) = (     0          1          0      )
                  (    -1          0          0      )
                  (     0          0         -1      )

 cart.    s(31) = (  0.0000000 -1.0000000  0.0000000 )
                  (  1.0000000  0.0000000  0.0000000 )
                  (  0.0000000  0.0000000 -1.0000000 )


      isym = 32     inv.  90 deg rotation - cart. axis [0,0,1]   

 cryst.   s(32) = (     0         -1          0      )
                  (     1          0          0      )
                  (     0          0         -1      )

 cart.    s(32) = (  0.0000000  1.0000000  0.0000000 )
                  ( -1.0000000  0.0000000  0.0000000 )
                  (  0.0000000  0.0000000 -1.0000000 )


      isym = 33     inv. 180 deg rotation - cart. axis [1,0,1]   

 cryst.   s(33) = (     0          0         -1      )
                  (     0          1          0      )
                  (    -1          0          0      )

 cart.    s(33) = (  0.0000000  0.0000000 -1.0000000 )
                  (  0.0000000  1.0000000  0.0000000 )
                  ( -1.0000000  0.0000000  0.0000000 )


      isym = 34     inv. 180 deg rotation - cart. axis [-1,0,1]  

 cryst.   s(34) = (     0          0          1      )
                  (     0          1          0      )
                  (     1          0          0      )

 cart.    s(34) = (  0.0000000  0.0000000  1.0000000 )
                  (  0.0000000  1.0000000  0.0000000 )
                  (  1.0000000  0.0000000  0.0000000 )


      isym = 35     inv.  90 deg rotation - cart. axis [0,1,0]   

 cryst.   s(35) = (     0          0          1      )
                  (     0         -1          0      )
                  (    -1          0          0      )

 cart.    s(35) = (  0.0000000  0.0000000 -1.0000000 )
                  (  0.0000000 -1.0000000  0.0000000 )
                  (  1.0000000  0.0000000  0.0000000 )


      isym = 36     inv.  90 deg rotation - cart. axis [0,-1,0]  

 cryst.   s(36) = (     0          0         -1      )
                  (     0         -1          0      )
                  (     1          0          0      )

 cart.    s(36) = (  0.0000000  0.0000000  1.0000000 )
                  (  0.0000000 -1.0000000  0.0000000 )
                  ( -1.0000000  0.0000000  0.0000000 )


      isym = 37     inv. 180 deg rotation - cart. axis [0,1,1]   

 cryst.   s(37) = (     1          0          0      )
                  (     0          0         -1      )
                  (     0         -1          0      )

 cart.    s(37) = (  1.0000000  0.0000000  0.0000000 )
                  (  0.0000000  0.0000000 -1.0000000 )
                  (  0.0000000 -1.0000000  0.0000000 )


      isym = 38     inv. 180 deg rotation - cart. axis [0,1,-1]  

 cryst.   s(38) = (     1          0          0      )
                  (     0          0          1      )
                  (     0          1          0      )

 cart.    s(38) = (  1.0000000  0.0000000  0.0000000 )
                  (  0.0000000  0.0000000  1.0000000 )
                  (  0.0000000  1.0000000  0.0000000 )


      isym = 39     inv.  90 deg rotation - cart. axis [-1,0,0]  

 cryst.   s(39) = (    -1          0          0      )
                  (     0          0          1      )
                  (     0         -1          0      )

 cart.    s(39) = ( -1.0000000  0.0000000  0.0000000 )
                  (  0.0000000  0.0000000 -1.0000000 )
                  (  0.0000000  1.0000000  0.0000000 )


      isym = 40     inv.  90 deg rotation - cart. axis [1,0,0]   

 cryst.   s(40) = (    -1          0          0      )
                  (     0          0         -1      )
                  (     0          1          0      )

 cart.    s(40) = ( -1.0000000  0.0000000  0.0000000 )
                  (  0.0000000  0.0000000  1.0000000 )
                  (  0.0000000 -1.0000000  0.0000000 )


      isym = 41     inv. 120 deg rotation - cart. axis [-1,-1,-1]

 cryst.   s(41) = (     0          0         -1      )
                  (    -1          0          0      )
                  (     0         -1          0      )

 cart.    s(41) = (  0.0000000 -1.0000000  0.0000000 )
                  (  0.0000000  0.0000000 -1.0000000 )
                  ( -1.0000000  0.0000000  0.0000000 )


      isym = 42     inv. 120 deg rotation - cart. axis [-1,1,1]  

 cryst.   s(42) = (     0          0          1      )
                  (     1          0          0      )
                  (     0         -1          0      )

 cart.    s(42) = (  0.0000000  1.0000000  0.0000000 )
                  (  0.0000000  0.0000000 -1.0000000 )
                  (  1.0000000  0.0000000  0.0000000 )


      isym = 43     inv. 120 deg rotation - cart. axis [1,1,-1]  

 cryst.   s(43) = (     0          0          1      )
                  (    -1          0          0      )
                  (     0          1          0      )

 cart.    s(43) = (  0.0000000 -1.0000000  0.0000000 )
                  (  0.0000000  0.0000000  1.0000000 )
                  (  1.0000000  0.0000000  0.0000000 )


      isym = 44     inv. 120 deg rotation - cart. axis [1,-1,1]  

 cryst.   s(44) = (     0          0         -1      )
                  (     1          0          0      )
                  (     0          1          0      )

 cart.    s(44) = (  0.0000000  1.0000000  0.0000000 )
                  (  0.0000000  0.0000000  1.0000000 )
                  ( -1.0000000  0.0000000  0.0000000 )


      isym = 45     inv. 120 deg rotation - cart. axis [1,1,1]   

 cryst.   s(45) = (     0         -1          0      )
                  (     0          0         -1      )
                  (    -1          0          0      )

 cart.    s(45) = (  0.0000000  0.0000000 -1.0000000 )
                  ( -1.0000000  0.0000000  0.0000000 )
                  (  0.0000000 -1.0000000  0.0000000 )


      isym = 46     inv. 120 deg rotation - cart. axis [-1,1,-1] 

 cryst.   s(46) = (     0          1          0      )
                  (     0          0          1      )
                  (    -1          0          0      )

 cart.    s(46) = (  0.0000000  0.0000000 -1.0000000 )
                  (  1.0000000  0.0000000  0.0000000 )
                  (  0.0000000  1.0000000  0.0000000 )


      isym = 47     inv. 120 deg rotation - cart. axis [1,-1,-1] 

 cryst.   s(47) = (     0          1          0      )
                  (     0          0         -1      )
                  (     1          0          0      )

 cart.    s(47) = (  0.0000000  0.0000000  1.0000000 )
                  (  1.0000000  0.0000000  0.0000000 )
                  (  0.0000000 -1.0000000  0.0000000 )


      isym = 48     inv. 120 deg rotation - cart. axis [-1,-1,1] 

 cryst.   s(48) = (     0         -1          0      )
                  (     0          0          1      )
                  (     1          0          0      )

 cart.    s(48) = (  0.0000000  0.0000000  1.0000000 )
                  ( -1.0000000  0.0000000  0.0000000 )
                  (  0.0000000  1.0000000  0.0000000 )


   Cartesian axes

     site n.     atom                  positions (alat units)
         1        Zn     tau(   1) = (   0.0000000   0.0000000   0.0000000  )
         2        O      tau(   2) = (   0.5000000   0.5000000   0.5000000  )

   Crystallographic axes

     site n.     atom                  positions (cryst. coord.)
         1        Zn     tau(   1) = (  0.0000000  0.0000000  0.0000000  )
         2        O      tau(   2) = (  0.5000000  0.5000000  0.5000000  )

     number of k points=    84  Marzari-Vanderbilt smearing, width (Ry)=  0.0147
                       cart. coord. in units 2pi/alat
        k(    1) = (   0.0000000   0.0000000   0.0000000), wk =   0.0011574
        k(    2) = (   0.0000000   0.0000000   0.0833333), wk =   0.0069444
        k(    3) = (   0.0000000   0.0000000   0.1666667), wk =   0.0069444
        k(    4) = (   0.0000000   0.0000000   0.2500000), wk =   0.0069444
        k(    5) = (   0.0000000   0.0000000   0.3333333), wk =   0.0069444
        k(    6) = (   0.0000000   0.0000000   0.4166667), wk =   0.0069444
        k(    7) = (   0.0000000   0.0000000  -0.5000000), wk =   0.0034722
        k(    8) = (   0.0000000   0.0833333   0.0833333), wk =   0.0138889
        k(    9) = (   0.0000000   0.0833333   0.1666667), wk =   0.0277778
        k(   10) = (   0.0000000   0.0833333   0.2500000), wk =   0.0277778
        k(   11) = (   0.0000000   0.0833333   0.3333333), wk =   0.0277778
        k(   12) = (   0.0000000   0.0833333   0.4166667), wk =   0.0277778
        k(   13) = (   0.0000000   0.0833333  -0.5000000), wk =   0.0138889
        k(   14) = (   0.0000000   0.1666667   0.1666667), wk =   0.0138889
        k(   15) = (   0.0000000   0.1666667   0.2500000), wk =   0.0277778
        k(   16) = (   0.0000000   0.1666667   0.3333333), wk =   0.0277778
        k(   17) = (   0.0000000   0.1666667   0.4166667), wk =   0.0277778
        k(   18) = (   0.0000000   0.1666667  -0.5000000), wk =   0.0138889
        k(   19) = (   0.0000000   0.2500000   0.2500000), wk =   0.0138889
        k(   20) = (   0.0000000   0.2500000   0.3333333), wk =   0.0277778
        k(   21) = (   0.0000000   0.2500000   0.4166667), wk =   0.0277778
        k(   22) = (   0.0000000   0.2500000  -0.5000000), wk =   0.0138889
        k(   23) = (   0.0000000   0.3333333   0.3333333), wk =   0.0138889
        k(   24) = (   0.0000000   0.3333333   0.4166667), wk =   0.0277778
        k(   25) = (   0.0000000   0.3333333  -0.5000000), wk =   0.0138889
        k(   26) = (   0.0000000   0.4166667   0.4166667), wk =   0.0138889
        k(   27) = (   0.0000000   0.4166667  -0.5000000), wk =   0.0138889
        k(   28) = (   0.0000000  -0.5000000  -0.5000000), wk =   0.0034722
        k(   29) = (   0.0833333   0.0833333   0.0833333), wk =   0.0092593
        k(   30) = (   0.0833333   0.0833333   0.1666667), wk =   0.0277778
        k(   31) = (   0.0833333   0.0833333   0.2500000), wk =   0.0277778
        k(   32) = (   0.0833333   0.0833333   0.3333333), wk =   0.0277778
        k(   33) = (   0.0833333   0.0833333   0.4166667), wk =   0.0277778
        k(   34) = (   0.0833333   0.0833333  -0.5000000), wk =   0.0138889
        k(   35) = (   0.0833333   0.1666667   0.1666667), wk =   0.0277778
        k(   36) = (   0.0833333   0.1666667   0.2500000), wk =   0.0555556
        k(   37) = (   0.0833333   0.1666667   0.3333333), wk =   0.0555556
        k(   38) = (   0.0833333   0.1666667   0.4166667), wk =   0.0555556
        k(   39) = (   0.0833333   0.1666667  -0.5000000), wk =   0.0277778
        k(   40) = (   0.0833333   0.2500000   0.2500000), wk =   0.0277778
        k(   41) = (   0.0833333   0.2500000   0.3333333), wk =   0.0555556
        k(   42) = (   0.0833333   0.2500000   0.4166667), wk =   0.0555556
        k(   43) = (   0.0833333   0.2500000  -0.5000000), wk =   0.0277778
        k(   44) = (   0.0833333   0.3333333   0.3333333), wk =   0.0277778
        k(   45) = (   0.0833333   0.3333333   0.4166667), wk =   0.0555556
        k(   46) = (   0.0833333   0.3333333  -0.5000000), wk =   0.0277778
        k(   47) = (   0.0833333   0.4166667   0.4166667), wk =   0.0277778
        k(   48) = (   0.0833333   0.4166667  -0.5000000), wk =   0.0277778
        k(   49) = (   0.0833333  -0.5000000  -0.5000000), wk =   0.0069444
        k(   50) = (   0.1666667   0.1666667   0.1666667), wk =   0.0092593
        k(   51) = (   0.1666667   0.1666667   0.2500000), wk =   0.0277778
        k(   52) = (   0.1666667   0.1666667   0.3333333), wk =   0.0277778
        k(   53) = (   0.1666667   0.1666667   0.4166667), wk =   0.0277778
        k(   54) = (   0.1666667   0.1666667  -0.5000000), wk =   0.0138889
        k(   55) = (   0.1666667   0.2500000   0.2500000), wk =   0.0277778
        k(   56) = (   0.1666667   0.2500000   0.3333333), wk =   0.0555556
        k(   57) = (   0.1666667   0.2500000   0.4166667), wk =   0.0555556
        k(   58) = (   0.1666667   0.2500000  -0.5000000), wk =   0.0277778
        k(   59) = (   0.1666667   0.3333333   0.3333333), wk =   0.0277778
        k(   60) = (   0.1666667   0.3333333   0.4166667), wk =   0.0555556
        k(   61) = (   0.1666667   0.3333333  -0.5000000), wk =   0.0277778
        k(   62) = (   0.1666667   0.4166667   0.4166667), wk =   0.0277778
        k(   63) = (   0.1666667   0.4166667  -0.5000000), wk =   0.0277778
        k(   64) = (   0.1666667  -0.5000000  -0.5000000), wk =   0.0069444
        k(   65) = (   0.2500000   0.2500000   0.2500000), wk =   0.0092593
        k(   66) = (   0.2500000   0.2500000   0.3333333), wk =   0.0277778
        k(   67) = (   0.2500000   0.2500000   0.4166667), wk =   0.0277778
        k(   68) = (   0.2500000   0.2500000  -0.5000000), wk =   0.0138889
        k(   69) = (   0.2500000   0.3333333   0.3333333), wk =   0.0277778
        k(   70) = (   0.2500000   0.3333333   0.4166667), wk =   0.0555556
        k(   71) = (   0.2500000   0.3333333  -0.5000000), wk =   0.0277778
        k(   72) = (   0.2500000   0.4166667   0.4166667), wk =   0.0277778
        k(   73) = (   0.2500000   0.4166667  -0.5000000), wk =   0.0277778
        k(   74) = (   0.2500000  -0.5000000  -0.5000000), wk =   0.0069444
        k(   75) = (   0.3333333   0.3333333   0.3333333), wk =   0.0092593
        k(   76) = (   0.3333333   0.3333333   0.4166667), wk =   0.0277778
        k(   77) = (   0.3333333   0.3333333  -0.5000000), wk =   0.0138889
        k(   78) = (   0.3333333   0.4166667   0.4166667), wk =   0.0277778
        k(   79) = (   0.3333333   0.4166667  -0.5000000), wk =   0.0277778
        k(   80) = (   0.3333333  -0.5000000  -0.5000000), wk =   0.0069444
        k(   81) = (   0.4166667   0.4166667   0.4166667), wk =   0.0092593
        k(   82) = (   0.4166667   0.4166667  -0.5000000), wk =   0.0138889
        k(   83) = (   0.4166667  -0.5000000  -0.5000000), wk =   0.0069444
        k(   84) = (  -0.5000000  -0.5000000  -0.5000000), wk =   0.0011574

                       cryst. coord.
        k(    1) = (   0.0000000   0.0000000   0.0000000), wk =   0.0011574
        k(    2) = (   0.0000000   0.0000000   0.0833333), wk =   0.0069444
        k(    3) = (   0.0000000   0.0000000   0.1666667), wk =   0.0069444
        k(    4) = (   0.0000000   0.0000000   0.2500000), wk =   0.0069444
        k(    5) = (   0.0000000   0.0000000   0.3333333), wk =   0.0069444
        k(    6) = (   0.0000000   0.0000000   0.4166667), wk =   0.0069444
        k(    7) = (   0.0000000   0.0000000  -0.5000000), wk =   0.0034722
        k(    8) = (   0.0000000   0.0833333   0.0833333), wk =   0.0138889
        k(    9) = (   0.0000000   0.0833333   0.1666667), wk =   0.0277778
        k(   10) = (   0.0000000   0.0833333   0.2500000), wk =   0.0277778
        k(   11) = (   0.0000000   0.0833333   0.3333333), wk =   0.0277778
        k(   12) = (   0.0000000   0.0833333   0.4166667), wk =   0.0277778
        k(   13) = (   0.0000000   0.0833333  -0.5000000), wk =   0.0138889
        k(   14) = (   0.0000000   0.1666667   0.1666667), wk =   0.0138889
        k(   15) = (   0.0000000   0.1666667   0.2500000), wk =   0.0277778
        k(   16) = (   0.0000000   0.1666667   0.3333333), wk =   0.0277778
        k(   17) = (   0.0000000   0.1666667   0.4166667), wk =   0.0277778
        k(   18) = (   0.0000000   0.1666667  -0.5000000), wk =   0.0138889
        k(   19) = (   0.0000000   0.2500000   0.2500000), wk =   0.0138889
        k(   20) = (   0.0000000   0.2500000   0.3333333), wk =   0.0277778
        k(   21) = (   0.0000000   0.2500000   0.4166667), wk =   0.0277778
        k(   22) = (   0.0000000   0.2500000  -0.5000000), wk =   0.0138889
        k(   23) = (   0.0000000   0.3333333   0.3333333), wk =   0.0138889
        k(   24) = (   0.0000000   0.3333333   0.4166667), wk =   0.0277778
        k(   25) = (   0.0000000   0.3333333  -0.5000000), wk =   0.0138889
        k(   26) = (   0.0000000   0.4166667   0.4166667), wk =   0.0138889
        k(   27) = (   0.0000000   0.4166667  -0.5000000), wk =   0.0138889
        k(   28) = (   0.0000000  -0.5000000  -0.5000000), wk =   0.0034722
        k(   29) = (   0.0833333   0.0833333   0.0833333), wk =   0.0092593
        k(   30) = (   0.0833333   0.0833333   0.1666667), wk =   0.0277778
        k(   31) = (   0.0833333   0.0833333   0.2500000), wk =   0.0277778
        k(   32) = (   0.0833333   0.0833333   0.3333333), wk =   0.0277778
        k(   33) = (   0.0833333   0.0833333   0.4166667), wk =   0.0277778
        k(   34) = (   0.0833333   0.0833333  -0.5000000), wk =   0.0138889
        k(   35) = (   0.0833333   0.1666667   0.1666667), wk =   0.0277778
        k(   36) = (   0.0833333   0.1666667   0.2500000), wk =   0.0555556
        k(   37) = (   0.0833333   0.1666667   0.3333333), wk =   0.0555556
        k(   38) = (   0.0833333   0.1666667   0.4166667), wk =   0.0555556
        k(   39) = (   0.0833333   0.1666667  -0.5000000), wk =   0.0277778
        k(   40) = (   0.0833333   0.2500000   0.2500000), wk =   0.0277778
        k(   41) = (   0.0833333   0.2500000   0.3333333), wk =   0.0555556
        k(   42) = (   0.0833333   0.2500000   0.4166667), wk =   0.0555556
        k(   43) = (   0.0833333   0.2500000  -0.5000000), wk =   0.0277778
        k(   44) = (   0.0833333   0.3333333   0.3333333), wk =   0.0277778
        k(   45) = (   0.0833333   0.3333333   0.4166667), wk =   0.0555556
        k(   46) = (   0.0833333   0.3333333  -0.5000000), wk =   0.0277778
        k(   47) = (   0.0833333   0.4166667   0.4166667), wk =   0.0277778
        k(   48) = (   0.0833333   0.4166667  -0.5000000), wk =   0.0277778
        k(   49) = (   0.0833333  -0.5000000  -0.5000000), wk =   0.0069444
        k(   50) = (   0.1666667   0.1666667   0.1666667), wk =   0.0092593
        k(   51) = (   0.1666667   0.1666667   0.2500000), wk =   0.0277778
        k(   52) = (   0.1666667   0.1666667   0.3333333), wk =   0.0277778
        k(   53) = (   0.1666667   0.1666667   0.4166667), wk =   0.0277778
        k(   54) = (   0.1666667   0.1666667  -0.5000000), wk =   0.0138889
        k(   55) = (   0.1666667   0.2500000   0.2500000), wk =   0.0277778
        k(   56) = (   0.1666667   0.2500000   0.3333333), wk =   0.0555556
        k(   57) = (   0.1666667   0.2500000   0.4166667), wk =   0.0555556
        k(   58) = (   0.1666667   0.2500000  -0.5000000), wk =   0.0277778
        k(   59) = (   0.1666667   0.3333333   0.3333333), wk =   0.0277778
        k(   60) = (   0.1666667   0.3333333   0.4166667), wk =   0.0555556
        k(   61) = (   0.1666667   0.3333333  -0.5000000), wk =   0.0277778
        k(   62) = (   0.1666667   0.4166667   0.4166667), wk =   0.0277778
        k(   63) = (   0.1666667   0.4166667  -0.5000000), wk =   0.0277778
        k(   64) = (   0.1666667  -0.5000000  -0.5000000), wk =   0.0069444
        k(   65) = (   0.2500000   0.2500000   0.2500000), wk =   0.0092593
        k(   66) = (   0.2500000   0.2500000   0.3333333), wk =   0.0277778
        k(   67) = (   0.2500000   0.2500000   0.4166667), wk =   0.0277778
        k(   68) = (   0.2500000   0.2500000  -0.5000000), wk =   0.0138889
        k(   69) = (   0.2500000   0.3333333   0.3333333), wk =   0.0277778
        k(   70) = (   0.2500000   0.3333333   0.4166667), wk =   0.0555556
        k(   71) = (   0.2500000   0.3333333  -0.5000000), wk =   0.0277778
        k(   72) = (   0.2500000   0.4166667   0.4166667), wk =   0.0277778
        k(   73) = (   0.2500000   0.4166667  -0.5000000), wk =   0.0277778
        k(   74) = (   0.2500000  -0.5000000  -0.5000000), wk =   0.0069444
        k(   75) = (   0.3333333   0.3333333   0.3333333), wk =   0.0092593
        k(   76) = (   0.3333333   0.3333333   0.4166667), wk =   0.0277778
        k(   77) = (   0.3333333   0.3333333  -0.5000000), wk =   0.0138889
        k(   78) = (   0.3333333   0.4166667   0.4166667), wk =   0.0277778
        k(   79) = (   0.3333333   0.4166667  -0.5000000), wk =   0.0277778
        k(   80) = (   0.3333333  -0.5000000  -0.5000000), wk =   0.0069444
        k(   81) = (   0.4166667   0.4166667   0.4166667), wk =   0.0092593
        k(   82) = (   0.4166667   0.4166667  -0.5000000), wk =   0.0138889
        k(   83) = (   0.4166667  -0.5000000  -0.5000000), wk =   0.0069444
        k(   84) = (  -0.5000000  -0.5000000  -0.5000000), wk =   0.0011574

     Dense  grid:    16831 G-vectors     FFT dimensions: (  32,  32,  32)

     Smooth grid:     5887 G-vectors     FFT dimensions: (  24,  24,  24)

     Dynamical RAM for                 wfc:       0.19 MB

     Dynamical RAM for     wfc (w. buffer):      16.32 MB

     Dynamical RAM for           str. fact:       0.51 MB

     Dynamical RAM for           local pot:       0.00 MB

     Dynamical RAM for          nlocal pot:       0.29 MB

     Dynamical RAM for                qrad:       3.21 MB

     Dynamical RAM for          rho,v,vnew:       1.52 MB

     Dynamical RAM for               rhoin:       0.51 MB

     Dynamical RAM for            rho*nmix:       4.11 MB

     Dynamical RAM for           G-vectors:       1.01 MB

     Dynamical RAM for          h,s,v(r/c):       0.05 MB

     Dynamical RAM for          <psi|beta>:       0.01 MB

     Dynamical RAM for                 psi:       0.38 MB

     Dynamical RAM for                hpsi:       0.38 MB

     Dynamical RAM for                spsi:       0.38 MB

     Dynamical RAM for      wfcinit/wfcrot:       0.39 MB

     Dynamical RAM for           addusdens:      48.03 MB

     Dynamical RAM for          addusforce:      48.16 MB

     Dynamical RAM for         addusstress:      51.62 MB

     Estimated static dynamical RAM per process >      25.39 MB

     Estimated max dynamical RAM per process >      81.12 MB

     Check: negative core charge=   -0.000003

     Initial potential from superposition of free atoms

     starting charge      25.9999, renormalised to      26.0000
     Starting wfcs are   17 randomized atomic wfcs
     Checking if some PAW data can be deallocated... 

     total cpu time spent up to now is        3.8 secs

     Self-consistent Calculation

     iteration #  1     ecut=    50.00 Ry     beta= 0.40
     Davidson diagonalization with overlap

---- Real-time Memory Report at c_bands before calling an iterative solver
            92 MiB given to the printing process from OS
             0 MiB allocation reported by mallinfo(arena+hblkhd)
          4674 MiB available memory on the node where the printing process lives
------------------
     ethr =  1.00E-02,  avg # of iterations =  2.9

     total cpu time spent up to now is       31.2 secs

     total energy              =    -503.04525604 Ry
     estimated scf accuracy    <       0.45167503 Ry

     iteration #  2     ecut=    50.00 Ry     beta= 0.40
     Davidson diagonalization with overlap

---- Real-time Memory Report at c_bands before calling an iterative solver
           118 MiB given to the printing process from OS
             0 MiB allocation reported by mallinfo(arena+hblkhd)
          4469 MiB available memory on the node where the printing process lives
------------------
     ethr =  1.74E-03,  avg # of iterations =  2.2

     total cpu time spent up to now is       44.2 secs

     WARNING: integrated charge=    26.00259289, expected=    26.00000000

     total energy              =    -503.15844373 Ry
     estimated scf accuracy    <       0.06460625 Ry

     iteration #  3     ecut=    50.00 Ry     beta= 0.40
     Davidson diagonalization with overlap

---- Real-time Memory Report at c_bands before calling an iterative solver
           119 MiB given to the printing process from OS
             0 MiB allocation reported by mallinfo(arena+hblkhd)
          4511 MiB available memory on the node where the printing process lives
------------------
     ethr =  2.48E-04,  avg # of iterations =  2.1

     total cpu time spent up to now is       74.7 secs

     WARNING: integrated charge=    26.00392189, expected=    26.00000000

     total energy              =    -503.17161173 Ry
     estimated scf accuracy    <       0.00462781 Ry

     iteration #  4     ecut=    50.00 Ry     beta= 0.40
     Davidson diagonalization with overlap

---- Real-time Memory Report at c_bands before calling an iterative solver
           119 MiB given to the printing process from OS
             0 MiB allocation reported by mallinfo(arena+hblkhd)
          4386 MiB available memory on the node where the printing process lives
------------------
     ethr =  1.78E-05,  avg # of iterations =  1.7

     total cpu time spent up to now is      101.7 secs

     WARNING: integrated charge=    26.00529156, expected=    26.00000000

     total energy              =    -503.17099071 Ry
     estimated scf accuracy    <       0.00079440 Ry

     iteration #  5     ecut=    50.00 Ry     beta= 0.40
     Davidson diagonalization with overlap

---- Real-time Memory Report at c_bands before calling an iterative solver
           119 MiB given to the printing process from OS
             0 MiB allocation reported by mallinfo(arena+hblkhd)
          4475 MiB available memory on the node where the printing process lives
------------------
     ethr =  3.06E-06,  avg # of iterations =  2.2

     total cpu time spent up to now is      131.2 secs

     WARNING: integrated charge=    26.00611386, expected=    26.00000000

     total energy              =    -503.17042659 Ry
     estimated scf accuracy    <       0.00000704 Ry

     iteration #  6     ecut=    50.00 Ry     beta= 0.40
     Davidson diagonalization with overlap

---- Real-time Memory Report at c_bands before calling an iterative solver
           119 MiB given to the printing process from OS
             0 MiB allocation reported by mallinfo(arena+hblkhd)
          4460 MiB available memory on the node where the printing process lives
------------------
     ethr =  2.71E-08,  avg # of iterations =  2.3

     total cpu time spent up to now is      153.0 secs

     WARNING: integrated charge=    26.00625269, expected=    26.00000000

     total energy              =    -503.17047668 Ry
     estimated scf accuracy    <       0.00000742 Ry

     iteration #  7     ecut=    50.00 Ry     beta= 0.40
     Davidson diagonalization with overlap

---- Real-time Memory Report at c_bands before calling an iterative solver
           119 MiB given to the printing process from OS
             0 MiB allocation reported by mallinfo(arena+hblkhd)
          4474 MiB available memory on the node where the printing process lives
------------------
     ethr =  2.71E-08,  avg # of iterations =  2.0

     total cpu time spent up to now is      164.6 secs

     WARNING: integrated charge=    26.00626745, expected=    26.00000000

     total energy              =    -503.17048047 Ry
     estimated scf accuracy    <       0.00000050 Ry

     iteration #  8     ecut=    50.00 Ry     beta= 0.40
     Davidson diagonalization with overlap

---- Real-time Memory Report at c_bands before calling an iterative solver
           120 MiB given to the printing process from OS
             0 MiB allocation reported by mallinfo(arena+hblkhd)
          4566 MiB available memory on the node where the printing process lives
------------------
     ethr =  1.91E-09,  avg # of iterations =  2.0

     total cpu time spent up to now is      192.2 secs

     WARNING: integrated charge=    26.00624231, expected=    26.00000000

     total energy              =    -503.17047731 Ry
     estimated scf accuracy    <       0.00000003 Ry

     iteration #  9     ecut=    50.00 Ry     beta= 0.40
     Davidson diagonalization with overlap

---- Real-time Memory Report at c_bands before calling an iterative solver
           120 MiB given to the printing process from OS
             0 MiB allocation reported by mallinfo(arena+hblkhd)
          4565 MiB available memory on the node where the printing process lives
------------------
     ethr =  9.88E-11,  avg # of iterations =  2.0

     total cpu time spent up to now is      218.1 secs

     End of self-consistent calculation

          k = 0.0000 0.0000 0.0000 (   739 PWs)   bands (ev):

  -111.2169 -65.3982 -65.3982 -65.3982  -5.3521   6.9582   6.9582   8.1629
     8.1629   8.1629  12.2502  12.2502  12.2502  13.0326  27.9333  27.9333
    31.7131

     occupation numbers 
     1.0000   1.0000   1.0000   1.0000   1.0000   1.0000   1.0000   1.0000
     1.0000   1.0000   1.0000   1.0000   1.0000   1.0000   0.0000   0.0000
     0.0000

          k = 0.0000 0.0000 0.0833 (   743 PWs)   bands (ev):

  -111.2167 -65.3998 -65.3981 -65.3981  -5.2756   6.9684   6.9698   8.1081
     8.1081   8.1655  11.2409  12.3440  12.3440  13.9777  27.3588  28.0329
    31.6055

     occupation numbers 
     1.0000   1.0000   1.0000   1.0000   1.0000   1.0000   1.0000   1.0000
     1.0000   1.0000   1.0000   1.0000   1.0000   0.5118   0.0000   0.0000
     0.0000

          k = 0.0000 0.0000 0.1667 (   739 PWs)   bands (ev):

  -111.2164 -65.4038 -65.3978 -65.3978  -5.0571   6.9352   6.9965   7.9679
     7.9679   8.1726  10.0315  12.5943  12.5943  15.1077  26.0701  28.3333
    31.2846

     occupation numbers 
     1.0000   1.0000   1.0000   1.0000   1.0000   1.0000   1.0000   1.0000
     1.0000   1.0000   1.0000   1.0000   1.0000   0.0000   0.0000   0.0000
     0.0000

          k = 0.0000 0.0000 0.2500 (   743 PWs)   bands (ev):

  -111.2160 -65.4095 -65.3974 -65.3974  -4.7327   6.6333   7.0351   7.7939
     7.7939   8.1823   9.2210  12.9264  12.9264  16.1574  24.5045  28.8360
    30.7914

     occupation numbers 
     1.0000   1.0000   1.0000   1.0000   1.0000   1.0000   1.0000   1.0000
     1.0000   1.0000   1.0000   1.0000   1.0000   0.0000   0.0000   0.0000
     0.0000

          k = 0.0000 0.0000 0.3333 (   743 PWs)   bands (ev):

  -111.2156 -65.4152 -65.3970 -65.3970  -4.3702   5.9893   7.0739   7.6359
     7.6359   8.1921   8.9747  13.2530  13.2530  17.1811  22.8838  29.5318
    30.2500

     occupation numbers 
     1.0000   1.0000   1.0000   1.0000   1.0000   1.0000   1.0000   1.0000
     1.0000   1.0000   1.0000   1.0000   1.0000   0.0000   0.0000   0.0000
     0.0000

          k = 0.0000 0.0000 0.4167 (   736 PWs)   bands (ev):

  -111.2153 -65.4194 -65.3965 -65.3965  -4.0729   5.3793   7.1026   7.5282
     7.5282   8.1993   8.9960  13.4914  13.4914  18.2195  21.3875  29.8316
    29.8317

     occupation numbers 
     1.0000   1.0000   1.0000   1.0000   1.0000   1.0000   1.0000   1.0000
     1.0000   1.0000   1.0000   1.0077   1.0077   0.0000   0.0000   0.0000
     0.0000

          k = 0.0000 0.0000-0.5000 (   756 PWs)   bands (ev):

  -111.2153 -65.4210 -65.3966 -65.3966  -3.9557   5.1387   7.1129   7.4902
     7.4902   8.2017   9.0277  13.5788  13.5788  18.9241  20.5127  29.6746
    29.6746

     occupation numbers 
     1.0000   1.0000   1.0000   1.0000   1.0000   1.0000   1.0000   1.0000
     1.0000   1.0000   1.0000   1.0291   1.0291   0.0000   0.0000   0.0000
     0.0000

          k = 0.0000 0.0833 0.0833 (   744 PWs)   bands (ev):

  -111.2166 -65.3997 -65.3996 -65.3980  -5.2003   6.9771   6.9890   8.0464
     8.0840   8.1425  10.9589  12.0243  12.4298  14.6087  27.2541  27.6808
    31.5235

     occupation numbers 
     1.0000   1.0000   1.0000   1.0000   1.0000   1.0000   1.0000   1.0000
     1.0000   1.0000   1.0000   1.0000   1.0000   0.0000   0.0000   0.0000
     0.0000

          k = 0.0000 0.0833 0.1667 (   741 PWs)   bands (ev):

  -111.2163 -65.4037 -65.3993 -65.3977  -4.9857   6.9593   7.0175   7.8956
     7.9642   8.1409  10.0530  12.0860  12.6594  15.6119  26.1186  27.7366
    31.2711

     occupation numbers 
     1.0000   1.0000   1.0000   1.0000   1.0000   1.0000   1.0000   1.0000
     1.0000   1.0000   1.0000   1.0000   1.0000   0.0000   0.0000   0.0000
     0.0000

          k = 0.0000 0.0833 0.2500 (   743 PWs)   bands (ev):

  -111.2159 -65.4094 -65.3989 -65.3973  -4.6675   6.6822   7.0562   7.7433
     7.8021   8.1522   9.2817  12.3957  12.9649  16.5896  24.5257  28.0187
    30.8616

     occupation numbers 
     1.0000   1.0000   1.0000   1.0000   1.0000   1.0000   1.0000   1.0000
     1.0000   1.0000   1.0000   1.0000   1.0000   0.0000   0.0000   0.0000
     0.0000

          k = 0.0000 0.0833 0.3333 (   748 PWs)   bands (ev):

  -111.2155 -65.4151 -65.3985 -65.3969  -4.3129   6.0725   7.0988   7.6204
     7.6524   8.1648   9.0003  12.7377  13.2658  17.5504  22.8676  28.3150
    30.3914

     occupation numbers 
     1.0000   1.0000   1.0000   1.0000   1.0000   1.0000   1.0000   1.0000
     1.0000   1.0000   1.0000   1.0000   1.0000   0.0000   0.0000   0.0000
     0.0000

          k = 0.0000 0.0833 0.4167 (   742 PWs)   bands (ev):

  -111.2152 -65.4193 -65.3981 -65.3965  -4.0229   5.4899   7.1329   7.5224
     7.5497   8.1743   8.9996  13.0003  13.4853  18.5577  21.3274  28.4974
    30.0178

     occupation numbers 
     1.0000   1.0000   1.0000   1.0000   1.0000   1.0000   1.0000   1.0000
     1.0000   1.0000   1.0000   1.0000   1.0069   0.0000   0.0000   0.0000
     0.0000

          k = 0.0000 0.0833-0.5000 (   742 PWs)   bands (ev):

  -111.2151 -65.4208 -65.3980 -65.3963  -3.9088   5.2588   7.1465   7.4843
     7.5134   8.1778   9.0257  13.0993  13.5658  19.3740  20.3124  28.5439
    29.8761

     occupation numbers 
     1.0000   1.0000   1.0000   1.0000   1.0000   1.0000   1.0000   1.0000
     1.0000   1.0000   1.0000   1.0000   1.0246   0.0000   0.0000   0.0000
     0.0000

          k = 0.0000 0.1667 0.1667 (   748 PWs)   bands (ev):

  -111.2161 -65.4036 -65.4034 -65.3975  -4.7825   6.9582   7.0861   7.7342
     7.9266   8.0865   9.9142  11.4253  12.8344  16.5051  26.2159  26.3219
    31.2053

     occupation numbers 
     1.0000   1.0000   1.0000   1.0000   1.0000   1.0000   1.0000   1.0000
     1.0000   1.0000   1.0000   1.0000   1.0000   0.0000   0.0000   0.0000
     0.0000

          k = 0.0000 0.1667 0.2500 (   745 PWs)   bands (ev):

  -111.2157 -65.4090 -65.4030 -65.3971  -4.4827   6.7685   7.1345   7.6315
     7.8192   8.0777   9.4112  11.3861  13.0687  17.3742  24.5377  26.4403
    31.0425

     occupation numbers 
     1.0000   1.0000   1.0000   1.0000   1.0000   1.0000   1.0000   1.0000
     1.0000   1.0000   1.0000   1.0000   1.0000   0.0000   0.0000   0.0000
     0.0000

          k = 0.0000 0.1667 0.3333 (   748 PWs)   bands (ev):

  -111.2153 -65.4148 -65.4026 -65.3966  -4.1510   6.2905   7.1775   7.5869
     7.6973   8.0924   9.0683  11.6520  13.2997  18.1849  22.8303  26.6345
    30.7950

     occupation numbers 
     1.0000   1.0000   1.0000   1.0000   1.0000   1.0000   1.0000   1.0000
     1.0000   1.0000   1.0000   1.0000   1.0001   0.0000   0.0000   0.0000
     0.0000

          k = 0.0000 0.1667 0.4167 (   742 PWs)   bands (ev):

  -111.2150 -65.4189 -65.4023 -65.3962  -3.8823   5.8041   7.2206   7.5144
     7.6093   8.1070   9.0065  11.9149  13.4679  19.0044  21.3406  26.7870
    30.5645

     occupation numbers 
     1.0000   1.0000   1.0000   1.0000   1.0000   1.0000   1.0000   1.0000
     1.0000   1.0000   1.0000   1.0000   1.0050   0.0000   0.0000   0.0000
     0.0000

          k = 0.0000 0.1667-0.5000 (   748 PWs)   bands (ev):

  -111.2149 -65.4205 -65.4022 -65.3961  -3.7773   5.6053   7.2418   7.4751
     7.5776   8.1127   9.0164  12.0225  13.5295  19.7059  20.3891  26.8457
    30.4707

     occupation numbers 
     1.0000   1.0000   1.0000   1.0000   1.0000   1.0000   1.0000   1.0000
     1.0000   1.0000   1.0000   1.0000   1.0145   0.0000   0.0000   0.0000
     0.0000

          k = 0.0000 0.2500 0.2500 (   730 PWs)   bands (ev):

  -111.2152 -65.4087 -65.4084 -65.3965  -4.2121   6.7428   7.2617   7.5556
     7.8140   8.0099   9.4172  10.6281  13.2074  18.0591  24.0477  25.3370
    31.2519

     occupation numbers 
     1.0000   1.0000   1.0000   1.0000   1.0000   1.0000   1.0000   1.0000
     1.0000   1.0000   1.0000   1.0000   1.0000   0.0000   0.0000   0.0000
     0.0000

          k = 0.0000 0.2500 0.3333 (   739 PWs)   bands (ev):

  -111.2149 -65.4143 -65.4081 -65.3961  -3.9163   6.5362   7.3299   7.5623
     7.7553   8.0007   9.1497  10.5411  13.3434  18.5108  22.8056  25.3010
    31.3923

     occupation numbers 
     1.0000   1.0000   1.0000   1.0000   1.0000   1.0000   1.0000   1.0000
     1.0000   1.0000   1.0000   1.0000   1.0003   0.0000   0.0000   0.0000
     0.0000

          k = 0.0000 0.2500 0.4167 (   739 PWs)   bands (ev):

  -111.2146 -65.4184 -65.4078 -65.3958  -3.6799   6.2590   7.3660   7.5266
     7.6922   8.0171   9.0042  10.7188  13.4418  18.7086  21.8836  25.4487
    31.4339

     occupation numbers 
     1.0000   1.0000   1.0000   1.0000   1.0000   1.0000   1.0000   1.0000
     1.0000   1.0000   1.0000   1.0000   1.0030   0.0000   0.0000   0.0000
     0.0000

          k = 0.0000 0.2500-0.5000 (   740 PWs)   bands (ev):

  -111.2145 -65.4199 -65.4077 -65.3957  -3.5883   6.1303   7.3889   7.4876
     7.6675   8.0254   8.9876  10.8124  13.4776  18.7431  21.5693  25.5216
    31.4335

     occupation numbers 
     1.0000   1.0000   1.0000   1.0000   1.0000   1.0000   1.0000   1.0000
     1.0000   1.0000   1.0000   1.0000   1.0060   0.0000   0.0000   0.0000
     0.0000

          k = 0.0000 0.3333 0.3333 (   748 PWs)   bands (ev):

  -111.2145 -65.4140 -65.4138 -65.3958  -3.6631   6.6786   7.5306   7.5639
     7.7931   7.9328   9.1388   9.7991  13.3845  18.3125  22.7955  24.6591
    32.0444

     occupation numbers 
     1.0000   1.0000   1.0000   1.0000   1.0000   1.0000   1.0000   1.0000
     1.0000   1.0000   1.0000   1.0000   1.0009   0.0000   0.0000   0.0000
     0.0000

          k = 0.0000 0.3333 0.4167 (   740 PWs)   bands (ev):

  -111.2142 -65.4179 -65.4134 -65.3955  -3.4635   6.7168   7.5704   7.6115
     7.7762   7.9301   8.9609   9.6784  13.4130  17.8616  22.7515  24.6051
    31.1449

     occupation numbers 
     1.0000   1.0000   1.0000   1.0000   1.0000   1.0000   1.0000   1.0000
     1.0000   1.0000   1.0000   1.0000   1.0016   0.0000   0.0000   0.0000
     0.0000

          k = 0.0000 0.3333-0.5000 (   740 PWs)   bands (ev):

  -111.2141 -65.4194 -65.4132 -65.3953  -3.3870   6.7189   7.5610   7.5999
     7.7600   7.9397   8.9122   9.7092  13.4231  17.6391  22.7228  24.6706
    30.8852

     occupation numbers 
     1.0000   1.0000   1.0000   1.0000   1.0000   1.0000   1.0000   1.0000
     1.0000   1.0000   1.0000   1.0000   1.0020   0.0000   0.0000   0.0000
     0.0000

          k = 0.0000 0.4167 0.4167 (   742 PWs)   bands (ev):

  -111.2139 -65.4175 -65.4175 -65.3952  -3.2949   7.0222   7.6589   7.8306
     7.8762   7.9082   8.7912   9.0451  13.3902  17.0642  23.4684  24.2175
    30.4509

     occupation numbers 
     1.0000   1.0000   1.0000   1.0000   1.0000   1.0000   1.0000   1.0000
     1.0000   1.0000   1.0000   1.0000   1.0010   0.0000   0.0000   0.0000
     0.0000

          k = 0.0000 0.4167-0.5000 (   744 PWs)   bands (ev):

  -111.2138 -65.4190 -65.4174 -65.3951  -3.2307   7.1353   7.7422   7.8296
     7.8779   7.9584   8.7407   8.8378  13.3814  16.7416  23.6653  24.2088
    30.1211

     occupation numbers 
     1.0000   1.0000   1.0000   1.0000   1.0000   1.0000   1.0000   1.0000
     1.0000   1.0000   1.0000   1.0000   1.0008   0.0000   0.0000   0.0000
     0.0000

          k = 0.0000-0.5000-0.5000 (   720 PWs)   bands (ev):

  -111.2136 -65.4187 -65.4187 -65.3947  -3.1713   7.2547   7.8556   7.8556
     7.9651   8.3718   8.3718   8.4503  13.3658  16.3912  24.0626  24.0626
    29.7496

     occupation numbers 
     1.0000   1.0000   1.0000   1.0000   1.0000   1.0000   1.0000   1.0000
     1.0000   1.0000   1.0000   1.0000   1.0005   0.0000   0.0000   0.0000
     0.0000

          k = 0.0833 0.0833 0.0833 (   742 PWs)   bands (ev):

  -111.2165 -65.3996 -65.3995 -65.3995  -5.1263   6.9999   6.9999   7.9955
     8.0844   8.0844  10.7588  12.1232  12.1232  15.1200  27.3058  27.3058
    30.5049

     occupation numbers 
     1.0000   1.0000   1.0000   1.0000   1.0000   1.0000   1.0000   1.0000
     1.0000   1.0000   1.0000   1.0000   1.0000   0.0000   0.0000   0.0000
     0.0000

          k = 0.0833 0.0833 0.1667 (   744 PWs)   bands (ev):

  -111.2162 -65.4037 -65.3993 -65.3992  -4.9153   6.9972   7.0301   7.8653
     7.9359   8.0960  10.0459  12.0173  12.3867  16.0260  26.1567  27.4464
    30.1203

     occupation numbers 
     1.0000   1.0000   1.0000   1.0000   1.0000   1.0000   1.0000   1.0000
     1.0000   1.0000   1.0000   1.0000   1.0000   0.0000   0.0000   0.0000
     0.0000

          k = 0.0833 0.0833 0.2500 (   740 PWs)   bands (ev):

  -111.2158 -65.4093 -65.3988 -65.3987  -4.6030   6.7384   7.0731   7.7515
     7.7590   8.1138   9.3273  12.2218  12.7362  16.9343  24.5619  27.6258
    30.0546

     occupation numbers 
     1.0000   1.0000   1.0000   1.0000   1.0000   1.0000   1.0000   1.0000
     1.0000   1.0000   1.0000   1.0000   1.0000   0.0000   0.0000   0.0000
     0.0000

          k = 0.0833 0.0833 0.3333 (   748 PWs)   bands (ev):

  -111.2154 -65.4150 -65.3984 -65.3984  -4.2558   6.1568   7.1201   7.5806
     7.6932   8.1322   9.0269  12.4988  13.0809  17.8317  22.8873  27.7573
    30.0230

     occupation numbers 
     1.0000   1.0000   1.0000   1.0000   1.0000   1.0000   1.0000   1.0000
     1.0000   1.0000   1.0000   1.0000   1.0000   0.0000   0.0000   0.0000
     0.0000

          k = 0.0833 0.0833 0.4167 (   742 PWs)   bands (ev):

  -111.2151 -65.4191 -65.3980 -65.3980  -3.9727   5.5976   7.1614   7.4576
     7.6284   8.1459   9.0095  12.7238  13.3337  18.7969  21.3295  27.7840
    29.9719

     occupation numbers 
     1.0000   1.0000   1.0000   1.0000   1.0000   1.0000   1.0000   1.0000
     1.0000   1.0000   1.0000   1.0000   1.0002   0.0000   0.0000   0.0000
     0.0000

          k = 0.0833 0.0833-0.5000 (   750 PWs)   bands (ev):

  -111.2150 -65.4208 -65.3980 -65.3979  -3.8616   5.3748   7.1805   7.4101
     7.6006   8.1508   9.0315  12.8106  13.4268  19.7541  20.1514  27.7706
    29.9452

     occupation numbers 
     1.0000   1.0000   1.0000   1.0000   1.0000   1.0000   1.0000   1.0000
     1.0000   1.0000   1.0000   1.0000   1.0022   0.0000   0.0000   0.0000
     0.0000

          k = 0.0833 0.1667 0.1667 (   744 PWs)   bands (ev):

  -111.2159 -65.4034 -65.4033 -65.3989  -4.7152   7.0144   7.0951   7.7387
     7.8929   8.0213   9.8682  11.5410  12.4798  16.8103  26.1838  26.3677
    29.7013

     occupation numbers 
     1.0000   1.0000   1.0000   1.0000   1.0000   1.0000   1.0000   1.0000
     1.0000   1.0000   1.0000   1.0000   1.0000   0.0000   0.0000   0.0000
     0.0000

          k = 0.0833 0.1667 0.2500 (   737 PWs)   bands (ev):

  -111.2155 -65.4089 -65.4028 -65.3984  -4.4203   6.8430   7.1386   7.6489
     7.7851   8.0225   9.4063  11.4392  12.7569  17.5899  24.6173  26.3470
    29.8506

     occupation numbers 
     1.0000   1.0000   1.0000   1.0000   1.0000   1.0000   1.0000   1.0000
     1.0000   1.0000   1.0000   1.0000   1.0000   0.0000   0.0000   0.0000
     0.0000

          k = 0.0833 0.1667 0.3333 (   740 PWs)   bands (ev):

  -111.2151 -65.4146 -65.4024 -65.3980  -4.0947   6.3765   7.1834   7.5358
     7.7539   8.0497   9.0885  11.6147  13.0466  18.3216  22.9322  26.3688
    30.1057

     occupation numbers 
     1.0000   1.0000   1.0000   1.0000   1.0000   1.0000   1.0000   1.0000
     1.0000   1.0000   1.0000   1.0000   1.0000   0.0000   0.0000   0.0000
     0.0000

          k = 0.0833 0.1667 0.4167 (   746 PWs)   bands (ev):

  -111.2149 -65.4188 -65.4022 -65.3977  -3.8315   5.9015   7.2349   7.4098
     7.7284   8.0727   9.0324  11.8116  13.2644  19.0650  21.4755  26.3300
    30.2931

     occupation numbers 
     1.0000   1.0000   1.0000   1.0000   1.0000   1.0000   1.0000   1.0000
     1.0000   1.0000   1.0000   1.0000   1.0000   0.0000   0.0000   0.0000
     0.0000

          k = 0.0833 0.1667-0.5000 (   748 PWs)   bands (ev):

  -111.2148 -65.4203 -65.4021 -65.3977  -3.7288   5.7074   7.2769   7.3403
     7.7112   8.0813   9.0443  11.8942  13.3457  19.6399  20.6356  26.3011
    30.3639

     occupation numbers 
     1.0000   1.0000   1.0000   1.0000   1.0000   1.0000   1.0000   1.0000
     1.0000   1.0000   1.0000   1.0000   1.0003   0.0000   0.0000   0.0000
     0.0000

          k = 0.0833 0.2500 0.2500 (   742 PWs)   bands (ev):

  -111.2151 -65.4086 -65.4084 -65.3981  -4.1531   6.8252   7.2486   7.5755
     7.8025   7.9492   9.3529  10.7734  12.9254  18.1688  24.2108  25.2024
    30.1376

     occupation numbers 
     1.0000   1.0000   1.0000   1.0000   1.0000   1.0000   1.0000   1.0000
     1.0000   1.0000   1.0000   1.0000   1.0000   0.0000   0.0000   0.0000
     0.0000

          k = 0.0833 0.2500 0.3333 (   742 PWs)   bands (ev):

  -111.2148 -65.4142 -65.4081 -65.3977  -3.8612   6.6151   7.2957   7.5228
     7.8200   7.9600   9.1350  10.6284  13.1110  18.5531  22.9446  25.0811
    30.5517

     occupation numbers 
     1.0000   1.0000   1.0000   1.0000   1.0000   1.0000   1.0000   1.0000
     1.0000   1.0000   1.0000   1.0000   1.0000   0.0000   0.0000   0.0000
     0.0000

          k = 0.0833 0.2500 0.4167 (   746 PWs)   bands (ev):

  -111.2145 -65.4183 -65.4078 -65.3974  -3.6281   6.3324   7.3043   7.4447
     7.8294   7.9906   9.0478  10.7239  13.2539  18.7321  21.9969  25.0747
    30.9244

     occupation numbers 
     1.0000   1.0000   1.0000   1.0000   1.0000   1.0000   1.0000   1.0000
     1.0000   1.0000   1.0000   1.0000   1.0000   0.0000   0.0000   0.0000
     0.0000

          k = 0.0833 0.2500-0.5000 (   738 PWs)   bands (ev):

  -111.2143 -65.4197 -65.4076 -65.3972  -3.5378   6.2020   7.3005   7.4178
     7.8214   8.0035   9.0510  10.7852  13.3081  18.7702  21.6678  25.0676
    31.1135

     occupation numbers 
     1.0000   1.0000   1.0000   1.0000   1.0000   1.0000   1.0000   1.0000
     1.0000   1.0000   1.0000   1.0000   1.0001   0.0000   0.0000   0.0000
     0.0000

          k = 0.0833 0.3333 0.3333 (   743 PWs)   bands (ev):

  -111.2144 -65.4138 -65.4136 -65.3973  -3.6091   6.7315   7.4114   7.5243
     7.8744   7.9514   9.0856   9.9850  13.1898  18.3493  22.8393  24.4279
    31.0916

     occupation numbers 
     1.0000   1.0000   1.0000   1.0000   1.0000   1.0000   1.0000   1.0000
     1.0000   1.0000   1.0000   1.0000   1.0000   0.0000   0.0000   0.0000
     0.0000

          k = 0.0833 0.3333 0.4167 (   741 PWs)   bands (ev):

  -111.2141 -65.4178 -65.4133 -65.3970  -3.4105   6.7467   7.3758   7.5296
     7.9075   7.9960   9.0166   9.8034  13.2528  17.9263  22.7040  24.2863
    31.2351

     occupation numbers 
     1.0000   1.0000   1.0000   1.0000   1.0000   1.0000   1.0000   1.0000
     1.0000   1.0000   1.0000   1.0000   1.0000   0.0000   0.0000   0.0000
     0.0000

          k = 0.0833 0.3333-0.5000 (   730 PWs)   bands (ev):

  -111.2139 -65.4192 -65.4131 -65.3967  -3.3343   6.7412   7.3138   7.5469
     7.9041   8.0078   9.0298   9.7880  13.2775  17.7156  22.6566  24.2822
    31.1258

     occupation numbers 
     1.0000   1.0000   1.0000   1.0000   1.0000   1.0000   1.0000   1.0000
     1.0000   1.0000   1.0000   1.0000   1.0001   0.0000   0.0000   0.0000
     0.0000

          k = 0.0833 0.4167 0.4167 (   738 PWs)   bands (ev):

  -111.2138 -65.4174 -65.4173 -65.3966  -3.2407   7.0188   7.4751   7.4966
     7.9309   8.1661   8.9156   9.2839  13.2539  17.1492  23.2637  23.9202
    30.6790

     occupation numbers 
     1.0000   1.0000   1.0000   1.0000   1.0000   1.0000   1.0000   1.0000
     1.0000   1.0000   1.0000   1.0000   1.0000   0.0000   0.0000   0.0000
     0.0000

          k = 0.0833 0.4167-0.5000 (   740 PWs)   bands (ev):

  -111.2137 -65.4189 -65.4172 -65.3966  -3.1760   7.1516   7.3967   7.5445
     7.9129   8.2372   8.9485   9.0930  13.2548  16.8303  23.4309  23.8700
    30.4133

     occupation numbers 
     1.0000   1.0000   1.0000   1.0000   1.0000   1.0000   1.0000   1.0000
     1.0000   1.0000   1.0000   1.0000   1.0000   0.0000   0.0000   0.0000
     0.0000

          k = 0.0833-0.5000-0.5000 (   744 PWs)   bands (ev):

  -111.2136 -65.4188 -65.4188 -65.3965  -3.1159   7.3321   7.4765   7.4765
     7.8654   8.4515   8.8487   8.8487  13.2462  16.4795  23.7422  23.7422
    30.0915

     occupation numbers 
     1.0000   1.0000   1.0000   1.0000   1.0000   1.0000   1.0000   1.0000
     1.0000   1.0000   1.0000   1.0000   1.0000   0.0000   0.0000   0.0000
     0.0000

          k = 0.1667 0.1667 0.1667 (   748 PWs)   bands (ev):

  -111.2157 -65.4032 -65.4030 -65.4030  -4.5242   7.1190   7.1190   7.7142
     7.8593   7.8593   9.6800  11.8469  11.8469  17.4155  26.0698  26.0698
    28.5408

     occupation numbers 
     1.0000   1.0000   1.0000   1.0000   1.0000   1.0000   1.0000   1.0000
     1.0000   1.0000   1.0000   1.0000   1.0000   0.0000   0.0000   0.0000
     0.0000

          k = 0.1667 0.1667 0.2500 (   740 PWs)   bands (ev):

  -111.2153 -65.4086 -65.4026 -65.4025  -4.2439   7.0111   7.1499   7.6681
     7.7388   7.8975   9.3396  11.4662  12.2522  18.0109  24.7395  25.8411
    28.6741

     occupation numbers 
     1.0000   1.0000   1.0000   1.0000   1.0000   1.0000   1.0000   1.0000
     1.0000   1.0000   1.0000   1.0000   1.0000   0.0000   0.0000   0.0000
     0.0000

          k = 0.1667 0.1667 0.3333 (   733 PWs)   bands (ev):

  -111.2148 -65.4142 -65.4021 -65.4020  -3.9359   6.5967   7.1756   7.5049
     7.8406   7.9520   9.1037  11.3757  12.6553  18.5504  23.1470  25.5142
    29.3671

     occupation numbers 
     1.0000   1.0000   1.0000   1.0000   1.0000   1.0000   1.0000   1.0000
     1.0000   1.0000   1.0000   1.0000   1.0000   0.0000   0.0000   0.0000
     0.0000

          k = 0.1667 0.1667 0.4167 (   744 PWs)   bands (ev):

  -111.2146 -65.4185 -65.4019 -65.4018  -3.6885   6.1672   7.1844   7.4064
     7.8649   7.9942   9.0896  11.4016  12.9553  19.0697  21.8239  25.2075
    30.0500

     occupation numbers 
     1.0000   1.0000   1.0000   1.0000   1.0000   1.0000   1.0000   1.0000
     1.0000   1.0000   1.0000   1.0000   1.0000   0.0000   0.0000   0.0000
     0.0000

          k = 0.1667 0.1667-0.5000 (   736 PWs)   bands (ev):

  -111.2145 -65.4198 -65.4017 -65.4016  -3.5923   5.9903   7.1824   7.3775
     7.8588   8.0098   9.1188  11.4243  13.0671  19.3841  21.2115  25.0810
    30.3458

     occupation numbers 
     1.0000   1.0000   1.0000   1.0000   1.0000   1.0000   1.0000   1.0000
     1.0000   1.0000   1.0000   1.0000   1.0000   0.0000   0.0000   0.0000
     0.0000

          k = 0.1667 0.2500 0.2500 (   736 PWs)   bands (ev):

  -111.2149 -65.4083 -65.4081 -65.4021  -3.9862   7.0189   7.1989   7.6241
     7.8052   7.8258   9.1607  11.1515  12.2927  18.3765  24.4883  24.8017
    28.5933

     occupation numbers 
     1.0000   1.0000   1.0000   1.0000   1.0000   1.0000   1.0000   1.0000
     1.0000   1.0000   1.0000   1.0000   1.0000   0.0000   0.0000   0.0000
     0.0000

          k = 0.1667 0.2500 0.3333 (   740 PWs)   bands (ev):

  -111.2145 -65.4138 -65.4078 -65.4017  -3.7055   6.8001   7.1576   7.5522
     7.8867   7.9253   9.0390  10.8754  12.5900  18.6229  23.1962  24.4256
    29.2590

     occupation numbers 
     1.0000   1.0000   1.0000   1.0000   1.0000   1.0000   1.0000   1.0000
     1.0000   1.0000   1.0000   1.0000   1.0000   0.0000   0.0000   0.0000
     0.0000

          k = 0.1667 0.2500 0.4167 (   743 PWs)   bands (ev):

  -111.2142 -65.4179 -65.4075 -65.4014  -3.4820   6.5083   7.0875   7.5203
     7.9445   7.9519   9.1383  10.7397  12.8503  18.7631  22.2099  24.0836
    30.1054

     occupation numbers 
     1.0000   1.0000   1.0000   1.0000   1.0000   1.0000   1.0000   1.0000
     1.0000   1.0000   1.0000   1.0000   1.0000   0.0000   0.0000   0.0000
     0.0000

          k = 0.1667 0.2500-0.5000 (   744 PWs)   bands (ev):

  -111.2141 -65.4194 -65.4073 -65.4013  -3.3957   6.3759   7.0585   7.5147
     7.9380   7.9685   9.2260  10.6954  12.9524  18.8090  21.8515  23.9374
    30.5468

     occupation numbers 
     1.0000   1.0000   1.0000   1.0000   1.0000   1.0000   1.0000   1.0000
     1.0000   1.0000   1.0000   1.0000   1.0000   0.0000   0.0000   0.0000
     0.0000

          k = 0.1667 0.3333 0.3333 (   738 PWs)   bands (ev):

  -111.2141 -65.4134 -65.4131 -65.4013  -3.4567   6.8142   7.1598   7.5553
     7.9741   7.9787   8.9821  10.4557  12.7209  18.4398  22.8106  23.7772
    29.6667

     occupation numbers 
     1.0000   1.0000   1.0000   1.0000   1.0000   1.0000   1.0000   1.0000
     1.0000   1.0000   1.0000   1.0000   1.0000   0.0000   0.0000   0.0000
     0.0000

          k = 0.1667 0.3333 0.4167 (   738 PWs)   bands (ev):

  -111.2138 -65.4174 -65.4129 -65.4010  -3.2606   6.7585   7.0596   7.5643
     7.9279   8.0704   9.1778  10.1861  12.8717  18.1057  22.4675  23.4162
    30.3805

     occupation numbers 
     1.0000   1.0000   1.0000   1.0000   1.0000   1.0000   1.0000   1.0000
     1.0000   1.0000   1.0000   1.0000   1.0000   0.0000   0.0000   0.0000
     0.0000

          k = 0.1667 0.3333-0.5000 (   744 PWs)   bands (ev):

  -111.2137 -65.4189 -65.4129 -65.4009  -3.1854   6.7308   6.9906   7.5805
     7.8838   8.0984   9.3618  10.0493  12.9372  17.9328  22.3920  23.2507
    30.8988

     occupation numbers 
     1.0000   1.0000   1.0000   1.0000   1.0000   1.0000   1.0000   1.0000
     1.0000   1.0000   1.0000   1.0000   1.0000   0.0000   0.0000   0.0000
     0.0000

          k = 0.1667 0.4167 0.4167 (   736 PWs)   bands (ev):

  -111.2135 -65.4171 -65.4169 -65.4007  -3.0874   6.8648   7.0616   7.5476
     7.7905   8.2704   9.3234   9.8717  12.9230  17.4032  22.6282  23.1074
    30.8020

     occupation numbers 
     1.0000   1.0000   1.0000   1.0000   1.0000   1.0000   1.0000   1.0000
     1.0000   1.0000   1.0000   1.0000   1.0000   0.0000   0.0000   0.0000
     0.0000

          k = 0.1667 0.4167-0.5000 (   736 PWs)   bands (ev):

  -111.2134 -65.4185 -65.4169 -65.4006  -3.0213   6.9482   6.9913   7.5612
     7.6980   8.3435   9.5144   9.6935  12.9485  17.0995  22.7491  22.9525
    31.2853

     occupation numbers 
     1.0000   1.0000   1.0000   1.0000   1.0000   1.0000   1.0000   1.0000
     1.0000   1.0000   1.0000   1.0000   1.0000   0.0000   0.0000   0.0000
     0.0000

          k = 0.1667-0.5000-0.5000 (   736 PWs)   bands (ev):

  -111.2133 -65.4184 -65.4184 -65.4004  -2.9589   7.0167   7.0167   7.5469
     7.5767   8.4551   9.5955   9.5955  12.9552  16.7521  22.8742  22.8742
    31.0192

     occupation numbers 
     1.0000   1.0000   1.0000   1.0000   1.0000   1.0000   1.0000   1.0000
     1.0000   1.0000   1.0000   1.0000   1.0000   0.0000   0.0000   0.0000
     0.0000

          k = 0.2500 0.2500 0.2500 (   738 PWs)   bands (ev):

  -111.2145 -65.4080 -65.4076 -65.4076  -3.7432   7.1004   7.1004   7.7321
     7.7321   7.9013   8.9087  11.6493  11.6493  18.5387  24.1796  24.1796
    27.9937

     occupation numbers 
     1.0000   1.0000   1.0000   1.0000   1.0000   1.0000   1.0000   1.0000
     1.0000   1.0000   1.0000   1.0000   1.0000   0.0000   0.0000   0.0000
     0.0000

          k = 0.2500 0.2500 0.3333 (   739 PWs)   bands (ev):

  -111.2141 -65.4133 -65.4075 -65.4072  -3.4795   6.9199   6.9803   7.6927
     7.8672   7.9880   8.9053  11.1428  12.1516  18.6330  23.1750  23.4777
    28.5687

     occupation numbers 
     1.0000   1.0000   1.0000   1.0000   1.0000   1.0000   1.0000   1.0000
     1.0000   1.0000   1.0000   1.0000   1.0000   0.0000   0.0000   0.0000
     0.0000

          k = 0.2500 0.2500 0.4167 (   745 PWs)   bands (ev):

  -111.2138 -65.4174 -65.4071 -65.4069  -3.2705   6.6612   6.8877   7.6828
     7.9067   7.9644   9.2609  10.7552  12.5354  18.6853  22.2810  22.9151
    29.4936

     occupation numbers 
     1.0000   1.0000   1.0000   1.0000   1.0000   1.0000   1.0000   1.0000
     1.0000   1.0000   1.0000   1.0000   1.0000   0.0000   0.0000   0.0000
     0.0000

          k = 0.2500 0.2500-0.5000 (   748 PWs)   bands (ev):

  -111.2137 -65.4190 -65.4070 -65.4068  -3.1901   6.5435   6.8537   7.6817
     7.8698   7.9909   9.4963  10.5601  12.6815  18.7049  21.9392  22.6985
    29.9928

     occupation numbers 
     1.0000   1.0000   1.0000   1.0000   1.0000   1.0000   1.0000   1.0000
     1.0000   1.0000   1.0000   1.0000   1.0000   0.0000   0.0000   0.0000
     0.0000

          k = 0.2500 0.3333 0.3333 (   736 PWs)   bands (ev):

  -111.2137 -65.4129 -65.4127 -65.4069  -3.2354   6.7948   6.8998   7.7573
     7.8783   8.0021   9.0568  11.0684  12.1867  18.5315  22.4591  22.8474
    28.6536

     occupation numbers 
     1.0000   1.0000   1.0000   1.0000   1.0000   1.0000   1.0000   1.0000
     1.0000   1.0000   1.0000   1.0000   1.0000   0.0000   0.0000   0.0000
     0.0000

          k = 0.2500 0.3333 0.4167 (   734 PWs)   bands (ev):

  -111.2134 -65.4169 -65.4124 -65.4065  -3.0429   6.6761   6.7746   7.6692
     7.7984   8.1257   9.5160  10.7286  12.4643  18.3410  21.9208  22.2859
    29.1382

     occupation numbers 
     1.0000   1.0000   1.0000   1.0000   1.0000   1.0000   1.0000   1.0000
     1.0000   1.0000   1.0000   1.0000   1.0000   0.0000   0.0000   0.0000
     0.0000

          k = 0.2500 0.3333-0.5000 (   738 PWs)   bands (ev):

  -111.2133 -65.4184 -65.4123 -65.4064  -2.9690   6.6259   6.7129   7.6044
     7.7989   8.1670   9.8571  10.4584  12.5940  18.2335  21.8765  21.9260
    29.4345

     occupation numbers 
     1.0000   1.0000   1.0000   1.0000   1.0000   1.0000   1.0000   1.0000
     1.0000   1.0000   1.0000   1.0000   1.0000   0.0000   0.0000   0.0000
     0.0000

          k = 0.2500 0.4167 0.4167 (   733 PWs)   bands (ev):

  -111.2131 -65.4166 -65.4164 -65.4062  -2.8641   6.6279   6.7167   7.4013
     7.8280   8.3107   9.9156  10.6088  12.5502  17.8141  21.6451  21.9870
    28.9898

     occupation numbers 
     1.0000   1.0000   1.0000   1.0000   1.0000   1.0000   1.0000   1.0000
     1.0000   1.0000   1.0000   1.0000   1.0000   0.0000   0.0000   0.0000
     0.0000

          k = 0.2500 0.4167-0.5000 (   730 PWs)   bands (ev):

  -111.2130 -65.4180 -65.4163 -65.4061  -2.7957   6.6450   6.6512   7.2910
     7.8368   8.3780  10.2368  10.4216  12.6105  17.5518  21.7055  21.7507
    28.9576

     occupation numbers 
     1.0000   1.0000   1.0000   1.0000   1.0000   1.0000   1.0000   1.0000
     1.0000   1.0000   1.0000   1.0000   1.0000   0.0000   0.0000   0.0000
     0.0000

          k = 0.2500-0.5000-0.5000 (   732 PWs)   bands (ev):

  -111.2129 -65.4178 -65.4178 -65.4060  -2.7294   6.6458   6.6458   7.1454
     7.8471   8.4600  10.4158  10.4158  12.6297  17.2267  21.6895  21.6895
    28.7625

     occupation numbers 
     1.0000   1.0000   1.0000   1.0000   1.0000   1.0000   1.0000   1.0000
     1.0000   1.0000   1.0000   1.0000   1.0000   0.0000   0.0000   0.0000
     0.0000

          k = 0.3333 0.3333 0.3333 (   729 PWs)   bands (ev):

  -111.2133 -65.4125 -65.4122 -65.4122  -2.9962   6.6900   6.6900   7.5566
     8.0212   8.0212   9.4522  11.6965  11.6965  18.5531  21.8663  21.8663
    28.1734

     occupation numbers 
     1.0000   1.0000   1.0000   1.0000   1.0000   1.0000   1.0000   1.0000
     1.0000   1.0000   1.0000   1.0000   1.0000   0.0000   0.0000   0.0000
     0.0000

          k = 0.3333 0.3333 0.4167 (   734 PWs)   bands (ev):

  -111.2130 -65.4164 -65.4122 -65.4119  -2.8074   6.5566   6.5629   7.2866
     8.0341   8.1943  10.0188  11.2348  12.1932  18.4766  21.1029  21.3906
    27.9997

     occupation numbers 
     1.0000   1.0000   1.0000   1.0000   1.0000   1.0000   1.0000   1.0000
     1.0000   1.0000   1.0000   1.0000   1.0000   0.0000   0.0000   0.0000
     0.0000

          k = 0.3333 0.3333-0.5000 (   744 PWs)   bands (ev):

  -111.2129 -65.4180 -65.4121 -65.4119  -2.7350   6.4997   6.5109   7.1922
     8.0387   8.2535  10.4480  10.8753  12.3880  18.4160  20.8100  21.2280
    27.9575

     occupation numbers 
     1.0000   1.0000   1.0000   1.0000   1.0000   1.0000   1.0000   1.0000
     1.0000   1.0000   1.0000   1.0000   1.0000   0.0000   0.0000   0.0000
     0.0000

          k = 0.3333 0.4167 0.4167 (   730 PWs)   bands (ev):

  -111.2127 -65.4161 -65.4159 -65.4117  -2.6215   6.4317   6.4622   6.9530
     8.1220   8.3311  10.5795  11.3619  12.2335  18.3199  20.5953  20.8275
    27.1297

     occupation numbers 
     1.0000   1.0000   1.0000   1.0000   1.0000   1.0000   1.0000   1.0000
     1.0000   1.0000   1.0000   1.0000   1.0000   0.0000   0.0000   0.0000
     0.0000

          k = 0.3333 0.4167-0.5000 (   726 PWs)   bands (ev):

  -111.2126 -65.4174 -65.4158 -65.4116  -2.5501   6.4017   6.4092   6.8268
     8.1364   8.3967  10.9929  11.1483  12.3500  18.1555  20.4385  20.6822
    26.7915

     occupation numbers 
     1.0000   1.0000   1.0000   1.0000   1.0000   1.0000   1.0000   1.0000
     1.0000   1.0000   1.0000   1.0000   1.0000   0.0000   0.0000   0.0000
     0.0000

          k = 0.3333-0.5000-0.5000 (   724 PWs)   bands (ev):

  -111.2125 -65.4173 -65.4173 -65.4115  -2.4792   6.3771   6.3771   6.6731
     8.1550   8.4650  11.2310  11.2310  12.3706  17.9066  20.4676  20.4676
    26.3301

     occupation numbers 
     1.0000   1.0000   1.0000   1.0000   1.0000   1.0000   1.0000   1.0000
     1.0000   1.0000   1.0000   1.0000   1.0000   0.0000   0.0000   0.0000
     0.0000

          k = 0.4167 0.4167 0.4167 (   711 PWs)   bands (ev):

  -111.2124 -65.4156 -65.4154 -65.4154  -2.4291   6.3069   6.3069   6.5913
     8.3420   8.3420  11.2021  11.9717  11.9717  18.6788  19.9209  19.9209
    25.6934

     occupation numbers 
     1.0000   1.0000   1.0000   1.0000   1.0000   1.0000   1.0000   1.0000
     1.0000   1.0000   1.0000   1.0000   1.0000   0.0000   0.0000   0.0000
     0.0000

          k = 0.4167 0.4167-0.5000 (   710 PWs)   bands (ev):

  -111.2123 -65.4170 -65.4154 -65.4153  -2.3550   6.2547   6.2637   6.4534
     8.3455   8.4223  11.6283  11.7074  12.2177  18.6879  19.5675  19.8366
    25.1198

     occupation numbers 
     1.0000   1.0000   1.0000   1.0000   1.0000   1.0000   1.0000   1.0000
     1.0000   1.0000   1.0000   1.0000   1.0000   0.0000   0.0000   0.0000
     0.0000

          k = 0.4167-0.5000-0.5000 (   716 PWs)   bands (ev):

  -111.2122 -65.4169 -65.4169 -65.4152  -2.2798   6.2146   6.2146   6.3017
     8.3851   8.4686  11.8930  11.8930  12.2143  18.6926  19.5064  19.5064
    24.4323

     occupation numbers 
     1.0000   1.0000   1.0000   1.0000   1.0000   1.0000   1.0000   1.0000
     1.0000   1.0000   1.0000   1.0000   1.0000   0.0000   0.0000   0.0000
     0.0000

          k =-0.5000-0.5000-0.5000 (   720 PWs)   bands (ev):

  -111.2121 -65.4168 -65.4168 -65.4168  -2.2027   6.1602   6.1602   6.1602
     8.4699   8.4699  12.1630  12.1630  12.1630  19.1280  19.1280  19.1280
    23.6161

     occupation numbers 
     1.0000   1.0000   1.0000   1.0000   1.0000   1.0000   1.0000   1.0000
     1.0000   1.0000   1.0000   1.0000   1.0000   0.0000   0.0000   0.0000
     0.0000

     the Fermi energy is    14.0088 ev

     WARNING: integrated charge=    26.00624567, expected=    26.00000000

!    total energy              =    -503.17047492 Ry
     estimated scf accuracy    <          2.5E-09 Ry
     smearing contrib. (-TS)   =       0.00004604 Ry
     internal energy E=F+TS    =    -503.17052097 Ry

     The total energy is F=E-TS. E is the sum of the following terms:
     one-electron contribution =    -343.60577186 Ry
     hartree contribution      =     186.50051329 Ry
     xc contribution           =     -49.77836011 Ry
     ewald contribution        =    -286.75790154 Ry
     one-center paw contrib.   =      -9.52900074 Ry
      -> PAW hartree energy AE =      25.97462692 Ry
      -> PAW hartree energy PS =     -25.85836196 Ry
      -> PAW xc energy AE      =     -16.65293706 Ry
      -> PAW xc energy PS      =       7.00767135 Ry
      -> total E_H with PAW    =     186.61677826 Ry
      -> total E_XC with PAW   =     -59.42362582 Ry

     convergence has been achieved in   9 iterations

     Forces acting on atoms (cartesian axes, Ry/au):

     atom    1 type  2   force =     0.00000000    0.00000000    0.00000000
     atom    2 type  1   force =     0.00000000    0.00000000    0.00000000
     The non-local contrib.  to forces
     atom    1 type  2   force =     0.00000000    0.00000000    0.00000000
     atom    2 type  1   force =     0.00000000    0.00000000    0.00000000
     The ionic contribution  to forces
     atom    1 type  2   force =    -0.00000000   -0.00000000   -0.00000000
     atom    2 type  1   force =     0.00000000    0.00000000    0.00000000
     The local contribution  to forces
     atom    1 type  2   force =    -0.00000000   -0.00000000   -0.00000000
     atom    2 type  1   force =     0.00000000    0.00000000    0.00000000
     The core correction contribution to forces
     atom    1 type  2   force =     0.00000000    0.00000000    0.00000000
     atom    2 type  1   force =     0.00000000   -0.00000000    0.00000000
     The Hubbard contrib.    to forces
     atom    1 type  2   force =     0.00000000    0.00000000    0.00000000
     atom    2 type  1   force =     0.00000000    0.00000000    0.00000000
     The SCF correction term to forces
     atom    1 type  2   force =     0.00000000   -0.00000000   -0.00000000
     atom    2 type  1   force =     0.00000000   -0.00000000    0.00000000

     Total force =     0.000000     Total SCF correction =     0.000000


     Computing stress (Cartesian axis) and pressure

          total   stress  (Ry/bohr**3)                   (kbar)     P=      114.11
   0.00077573   0.00000000   0.00000000          114.11        0.00        0.00
   0.00000000   0.00077573   0.00000000            0.00      114.11        0.00
   0.00000000   0.00000000   0.00077573            0.00        0.00      114.11

     kinetic stress (kbar)  45249.53      0.00      0.00
                                0.00  45249.53      0.00
                                0.00      0.00  45249.53

     local   stress (kbar)  14389.39      0.00     -0.00
                                0.00  14389.39      0.00
                               -0.00      0.00  14389.39

     nonloc. stress (kbar)   -985.20      0.00      0.00
                                0.00   -985.20      0.00
                                0.00      0.00   -985.20

     hartree stress (kbar)  73816.96     -0.00      0.00
                               -0.00  73816.96     -0.00
                                0.00     -0.00  73816.96

     exc-cor stress (kbar) -18352.85     -0.00     -0.00
                               -0.00 -18352.85     -0.00
                               -0.00     -0.00 -18352.85

     corecor stress (kbar)   -504.86     -0.00     -0.00
                               -0.00   -504.86     -0.00
                               -0.00     -0.00   -504.86

     ewald   stress (kbar)-113498.86      0.00     -0.00
                                0.00-113498.86     -0.00
                               -0.00     -0.00-113498.86

     hubbard stress (kbar)      0.00      0.00      0.00
                                0.00      0.00      0.00
                                0.00      0.00      0.00

     DFT-D   stress (kbar)      0.00      0.00      0.00
                                0.00      0.00      0.00
                                0.00      0.00      0.00

     XDM     stress (kbar)      0.00      0.00      0.00
                                0.00      0.00      0.00
                                0.00      0.00      0.00

     dft-nl  stress (kbar)      0.00      0.00      0.00
                                0.00      0.00      0.00
                                0.00      0.00      0.00

     TS-vdW  stress (kbar)      0.00      0.00      0.00
                                0.00      0.00      0.00
                                0.00      0.00      0.00

     MDB     stress (kbar)      0.00      0.00      0.00
                                0.00      0.00      0.00
                                0.00      0.00      0.00

     3D-RISM stress (kbar)      0.00      0.00      0.00
                                0.00      0.00      0.00
                                0.00      0.00      0.00


     Writing all to output data dir ./temp_cubic/aiida.save/ :
     XML data file, charge density, pseudopotentials, collected wavefunctions

     init_run     :     51.73s CPU      2.39s WALL (       1 calls)
     electrons    :   5004.27s CPU    214.28s WALL (       1 calls)
     forces       :     39.88s CPU      1.70s WALL (       1 calls)
     stress       :     18.22s CPU      0.98s WALL (       1 calls)

     Called by init_run:
     wfcinit      :     46.36s CPU      1.94s WALL (       1 calls)
     wfcinit:atom :      0.76s CPU      0.05s WALL (      84 calls)
     wfcinit:wfcr :     43.96s CPU      1.81s WALL (      84 calls)
     potinit      :      2.04s CPU      0.11s WALL (       1 calls)
     hinit0       :      1.94s CPU      0.26s WALL (       1 calls)

     Called by electrons:
     c_bands      :   4194.24s CPU    179.01s WALL (       9 calls)
     sum_band     :    794.67s CPU     34.44s WALL (       9 calls)
     v_of_rho     :      2.40s CPU      0.11s WALL (      10 calls)
     v_h          :      0.46s CPU      0.03s WALL (      10 calls)
     v_xc         :      2.35s CPU      0.09s WALL (      12 calls)
     newd         :      6.78s CPU      0.45s WALL (      10 calls)
     PAW_pot      :      7.27s CPU      0.31s WALL (      10 calls)
     mix_rho      :      0.27s CPU      0.03s WALL (       9 calls)

     Called by c_bands:
     init_us_2    :     45.34s CPU      2.13s WALL (    1764 calls)
     cegterg      :   4077.17s CPU    174.11s WALL (     756 calls)

     Called by sum_band:
     sum_band:wei :      0.02s CPU      0.01s WALL (       9 calls)
     sum_band:loo :    790.72s CPU     34.00s WALL (       9 calls)
     sum_band:buf :      1.27s CPU      0.03s WALL (     756 calls)
     sum_band:ini :     22.00s CPU      0.98s WALL (     756 calls)
     sum_band:cal :      8.24s CPU      0.37s WALL (     756 calls)
     sum_band:bec :     43.23s CPU      1.79s WALL (     756 calls)
     addusdens    :      3.37s CPU      0.39s WALL (       9 calls)
                                        0.00s GPU  (       9 calls)
     addusd:skk   :      0.00s CPU      0.00s WALL (      18 calls)
                                        0.00s GPU  (      18 calls)

     Called by *egterg:
     cdiaghg      :     15.11s CPU      0.70s WALL (    2396 calls)
     cegterg:over :     29.09s CPU      1.36s WALL (    1640 calls)
     cegterg:upda :     61.65s CPU      2.77s WALL (    1640 calls)
     cegterg:last :     50.55s CPU      1.95s WALL (    1456 calls)
     h_psi        :   3702.29s CPU    158.22s WALL (    2480 calls)
     s_psi        :     26.88s CPU      1.09s WALL (    2480 calls)
     g_psi        :     68.72s CPU      2.82s WALL (    1640 calls)

     Called by h_psi:
     h_psi:calbec :     22.03s CPU      1.01s WALL (    2480 calls)
     vloc_psi     :   3551.92s CPU    151.83s WALL (    2480 calls)
     add_vuspsi   :     27.27s CPU      1.10s WALL (    2480 calls)

     General routines
     calbec       :     35.04s CPU      1.61s WALL (    3656 calls)
     fft          :      1.07s CPU      0.05s WALL (     153 calls)
     ffts         :      0.02s CPU      0.00s WALL (      19 calls)
     fftw         :    162.79s CPU      6.92s WALL (   75578 calls)
     interpolate  :      0.23s CPU      0.01s WALL (      10 calls)

     Parallel routines

     PAW routines
     PAW_pot      :      7.27s CPU      0.31s WALL (      10 calls)
     PAW_symme    :      0.00s CPU      0.00s WALL (      19 calls)

     PWSCF        :      1h25m CPU   3m42.34s WALL


   This run was terminated on:  21:20: 0   7Jun2024            

=------------------------------------------------------------------------------=
   JOB DONE.
=------------------------------------------------------------------------------=
