
     Program PWSCF v.7.3.1 starts on  7Jun2024 at 22:44:33 

     This program is part of the open-source Quantum ESPRESSO suite
     for quantum simulation of materials; please cite
         "P. Giannozzi et al., J. Phys.:Condens. Matter 21 395502 (2009);
         "P. Giannozzi et al., J. Phys.:Condens. Matter 29 465901 (2017);
         "P. Giannozzi et al., J. Chem. Phys. 152 154105 (2020);
          URL http://www.quantum-espresso.org", 
     in publications or presentations arising from this work. More details at
     http://www.quantum-espresso.org/quote

     Parallel version (MPI & OpenMP), running on      24 processor cores
     Number of MPI processes:                 1
     Threads/MPI process:                    24

     MPI processes distributed on     1 nodes
     4531 MiB available memory on the printing compute node when the environment starts

     Waiting for input...
     Reading input from standard input

     Current dimensions of program PWSCF are:
     Max number of different atomic species (ntypx) = 10
     Max number of k-points (npk) =  40000
     Max angular momentum in pseudopotentials (lmaxx) =  4
     file O.pbe-n-kjpaw_psl.0.1.UPF: wavefunction(s)  2P renormalized
     Message from routine setup:
     using ibrav=0 with symmetry is DISCOURAGED, use correct ibrav instead

     Subspace diagonalization in iterative solution of the eigenvalue problem:
     a serial algorithm will be used


     G-vector sticks info
     --------------------
     sticks:   dense  smooth     PW     G-vecs:    dense   smooth      PW
     Sum         861     429    137                18853     6667    1237

     Using Slab Decomposition



     bravais-lattice index     =            0
     lattice parameter (alat)  =       5.1886  a.u.
     unit-cell volume          =     139.6859 (a.u.)^3
     number of atoms/cell      =            2
     number of atomic types    =            2
     number of electrons       =        26.00
     number of Kohn-Sham states=           17
     kinetic-energy cutoff     =      50.0000  Ry
     charge density cutoff     =     400.0000  Ry
     scf convergence threshold =      1.0E-08
     mixing beta               =       0.4000
     number of iterations used =            8  plain     mixing
     Exchange-correlation= SLA  PW   PBE  PBE
                           (   1   4   3   4   0   0   0)

     celldm(1)=   5.188608  celldm(2)=   0.000000  celldm(3)=   0.000000
     celldm(4)=   0.000000  celldm(5)=   0.000000  celldm(6)=   0.000000

     crystal axes: (cart. coord. in units of alat)
               a(1) = (   1.000000   0.000000   0.000000 )  
               a(2) = (   0.000000   1.000000   0.000000 )  
               a(3) = (   0.000000   0.000000   1.000000 )  

     reciprocal axes: (cart. coord. in units 2 pi/alat)
               b(1) = (  1.000000  0.000000  0.000000 )  
               b(2) = (  0.000000  1.000000  0.000000 )  
               b(3) = (  0.000000  0.000000  1.000000 )  


     PseudoPot. # 1 for O  read from file:
     ../SSSP_1.3.0_PBE_efficiency/O.pbe-n-kjpaw_psl.0.1.UPF
     MD5 check sum: 0234752ac141de4415c5fc33072bef88
     Pseudo is Projector augmented-wave + core cor, Zval =  6.0
     Generated using "atomic" code by A. Dal Corso  v.5.0.99 svn rev. 10869
     Shape of augmentation charge: BESSEL
     Using radial grid of 1095 points,  4 beta functions with: 
                l(1) =   0
                l(2) =   0
                l(3) =   1
                l(4) =   1
     Q(r) pseudized with 0 coefficients 


     PseudoPot. # 2 for Zn read from file:
     ../SSSP_1.3.0_PBE_efficiency/Zn_pbe_v1.uspp.F.UPF
     MD5 check sum: df62231357ef9e81f77b2b3087fa5675
     Pseudo is Ultrasoft, Zval = 20.0
     Generated by new atomic code, or converted to UPF format
     Using radial grid of  943 points,  6 beta functions with: 
                l(1) =   0
                l(2) =   0
                l(3) =   1
                l(4) =   1
                l(5) =   2
                l(6) =   2
     Q(r) pseudized with  8 coefficients,  rinner =    1.100   1.100   1.100
                                                       1.100   1.100

     atomic species   valence    mass     pseudopotential
     O                 6.00    15.99940     O ( 1.00)
     Zn               20.00    65.38000     Zn( 1.00)

     48 Sym. Ops., with inversion, found


                                    s                        frac. trans.

      isym =  1     identity                                     

 cryst.   s( 1) = (     1          0          0      )
                  (     0          1          0      )
                  (     0          0          1      )

 cart.    s( 1) = (  1.0000000  0.0000000  0.0000000 )
                  (  0.0000000  1.0000000  0.0000000 )
                  (  0.0000000  0.0000000  1.0000000 )


      isym =  2     180 deg rotation - cart. axis [0,0,1]        

 cryst.   s( 2) = (    -1          0          0      )
                  (     0         -1          0      )
                  (     0          0          1      )

 cart.    s( 2) = ( -1.0000000  0.0000000  0.0000000 )
                  (  0.0000000 -1.0000000  0.0000000 )
                  (  0.0000000  0.0000000  1.0000000 )


      isym =  3     180 deg rotation - cart. axis [0,1,0]        

 cryst.   s( 3) = (    -1          0          0      )
                  (     0          1          0      )
                  (     0          0         -1      )

 cart.    s( 3) = ( -1.0000000  0.0000000  0.0000000 )
                  (  0.0000000  1.0000000  0.0000000 )
                  (  0.0000000  0.0000000 -1.0000000 )


      isym =  4     180 deg rotation - cart. axis [1,0,0]        

 cryst.   s( 4) = (     1          0          0      )
                  (     0         -1          0      )
                  (     0          0         -1      )

 cart.    s( 4) = (  1.0000000  0.0000000  0.0000000 )
                  (  0.0000000 -1.0000000  0.0000000 )
                  (  0.0000000  0.0000000 -1.0000000 )


      isym =  5     180 deg rotation - cart. axis [1,1,0]        

 cryst.   s( 5) = (     0          1          0      )
                  (     1          0          0      )
                  (     0          0         -1      )

 cart.    s( 5) = (  0.0000000  1.0000000  0.0000000 )
                  (  1.0000000  0.0000000  0.0000000 )
                  (  0.0000000  0.0000000 -1.0000000 )


      isym =  6     180 deg rotation - cart. axis [1,-1,0]       

 cryst.   s( 6) = (     0         -1          0      )
                  (    -1          0          0      )
                  (     0          0         -1      )

 cart.    s( 6) = (  0.0000000 -1.0000000  0.0000000 )
                  ( -1.0000000  0.0000000  0.0000000 )
                  (  0.0000000  0.0000000 -1.0000000 )


      isym =  7      90 deg rotation - cart. axis [0,0,-1]       

 cryst.   s( 7) = (     0         -1          0      )
                  (     1          0          0      )
                  (     0          0          1      )

 cart.    s( 7) = (  0.0000000  1.0000000  0.0000000 )
                  ( -1.0000000  0.0000000  0.0000000 )
                  (  0.0000000  0.0000000  1.0000000 )


      isym =  8      90 deg rotation - cart. axis [0,0,1]        

 cryst.   s( 8) = (     0          1          0      )
                  (    -1          0          0      )
                  (     0          0          1      )

 cart.    s( 8) = (  0.0000000 -1.0000000  0.0000000 )
                  (  1.0000000  0.0000000  0.0000000 )
                  (  0.0000000  0.0000000  1.0000000 )


      isym =  9     180 deg rotation - cart. axis [1,0,1]        

 cryst.   s( 9) = (     0          0          1      )
                  (     0         -1          0      )
                  (     1          0          0      )

 cart.    s( 9) = (  0.0000000  0.0000000  1.0000000 )
                  (  0.0000000 -1.0000000  0.0000000 )
                  (  1.0000000  0.0000000  0.0000000 )


      isym = 10     180 deg rotation - cart. axis [-1,0,1]       

 cryst.   s(10) = (     0          0         -1      )
                  (     0         -1          0      )
                  (    -1          0          0      )

 cart.    s(10) = (  0.0000000  0.0000000 -1.0000000 )
                  (  0.0000000 -1.0000000  0.0000000 )
                  ( -1.0000000  0.0000000  0.0000000 )


      isym = 11      90 deg rotation - cart. axis [0,1,0]        

 cryst.   s(11) = (     0          0         -1      )
                  (     0          1          0      )
                  (     1          0          0      )

 cart.    s(11) = (  0.0000000  0.0000000  1.0000000 )
                  (  0.0000000  1.0000000  0.0000000 )
                  ( -1.0000000  0.0000000  0.0000000 )


      isym = 12      90 deg rotation - cart. axis [0,-1,0]       

 cryst.   s(12) = (     0          0          1      )
                  (     0          1          0      )
                  (    -1          0          0      )

 cart.    s(12) = (  0.0000000  0.0000000 -1.0000000 )
                  (  0.0000000  1.0000000  0.0000000 )
                  (  1.0000000  0.0000000  0.0000000 )


      isym = 13     180 deg rotation - cart. axis [0,1,1]        

 cryst.   s(13) = (    -1          0          0      )
                  (     0          0          1      )
                  (     0          1          0      )

 cart.    s(13) = ( -1.0000000  0.0000000  0.0000000 )
                  (  0.0000000  0.0000000  1.0000000 )
                  (  0.0000000  1.0000000  0.0000000 )


      isym = 14     180 deg rotation - cart. axis [0,1,-1]       

 cryst.   s(14) = (    -1          0          0      )
                  (     0          0         -1      )
                  (     0         -1          0      )

 cart.    s(14) = ( -1.0000000  0.0000000  0.0000000 )
                  (  0.0000000  0.0000000 -1.0000000 )
                  (  0.0000000 -1.0000000  0.0000000 )


      isym = 15      90 deg rotation - cart. axis [-1,0,0]       

 cryst.   s(15) = (     1          0          0      )
                  (     0          0         -1      )
                  (     0          1          0      )

 cart.    s(15) = (  1.0000000  0.0000000  0.0000000 )
                  (  0.0000000  0.0000000  1.0000000 )
                  (  0.0000000 -1.0000000  0.0000000 )


      isym = 16      90 deg rotation - cart. axis [1,0,0]        

 cryst.   s(16) = (     1          0          0      )
                  (     0          0          1      )
                  (     0         -1          0      )

 cart.    s(16) = (  1.0000000  0.0000000  0.0000000 )
                  (  0.0000000  0.0000000 -1.0000000 )
                  (  0.0000000  1.0000000  0.0000000 )


      isym = 17     120 deg rotation - cart. axis [-1,-1,-1]     

 cryst.   s(17) = (     0          0          1      )
                  (     1          0          0      )
                  (     0          1          0      )

 cart.    s(17) = (  0.0000000  1.0000000  0.0000000 )
                  (  0.0000000  0.0000000  1.0000000 )
                  (  1.0000000  0.0000000  0.0000000 )


      isym = 18     120 deg rotation - cart. axis [-1,1,1]       

 cryst.   s(18) = (     0          0         -1      )
                  (    -1          0          0      )
                  (     0          1          0      )

 cart.    s(18) = (  0.0000000 -1.0000000  0.0000000 )
                  (  0.0000000  0.0000000  1.0000000 )
                  ( -1.0000000  0.0000000  0.0000000 )


      isym = 19     120 deg rotation - cart. axis [1,1,-1]       

 cryst.   s(19) = (     0          0         -1      )
                  (     1          0          0      )
                  (     0         -1          0      )

 cart.    s(19) = (  0.0000000  1.0000000  0.0000000 )
                  (  0.0000000  0.0000000 -1.0000000 )
                  ( -1.0000000  0.0000000  0.0000000 )


      isym = 20     120 deg rotation - cart. axis [1,-1,1]       

 cryst.   s(20) = (     0          0          1      )
                  (    -1          0          0      )
                  (     0         -1          0      )

 cart.    s(20) = (  0.0000000 -1.0000000  0.0000000 )
                  (  0.0000000  0.0000000 -1.0000000 )
                  (  1.0000000  0.0000000  0.0000000 )


      isym = 21     120 deg rotation - cart. axis [1,1,1]        

 cryst.   s(21) = (     0          1          0      )
                  (     0          0          1      )
                  (     1          0          0      )

 cart.    s(21) = (  0.0000000  0.0000000  1.0000000 )
                  (  1.0000000  0.0000000  0.0000000 )
                  (  0.0000000  1.0000000  0.0000000 )


      isym = 22     120 deg rotation - cart. axis [-1,1,-1]      

 cryst.   s(22) = (     0         -1          0      )
                  (     0          0         -1      )
                  (     1          0          0      )

 cart.    s(22) = (  0.0000000  0.0000000  1.0000000 )
                  ( -1.0000000  0.0000000  0.0000000 )
                  (  0.0000000 -1.0000000  0.0000000 )


      isym = 23     120 deg rotation - cart. axis [1,-1,-1]      

 cryst.   s(23) = (     0         -1          0      )
                  (     0          0          1      )
                  (    -1          0          0      )

 cart.    s(23) = (  0.0000000  0.0000000 -1.0000000 )
                  ( -1.0000000  0.0000000  0.0000000 )
                  (  0.0000000  1.0000000  0.0000000 )


      isym = 24     120 deg rotation - cart. axis [-1,-1,1]      

 cryst.   s(24) = (     0          1          0      )
                  (     0          0         -1      )
                  (    -1          0          0      )

 cart.    s(24) = (  0.0000000  0.0000000 -1.0000000 )
                  (  1.0000000  0.0000000  0.0000000 )
                  (  0.0000000 -1.0000000  0.0000000 )


      isym = 25     inversion                                    

 cryst.   s(25) = (    -1          0          0      )
                  (     0         -1          0      )
                  (     0          0         -1      )

 cart.    s(25) = ( -1.0000000  0.0000000  0.0000000 )
                  (  0.0000000 -1.0000000  0.0000000 )
                  (  0.0000000  0.0000000 -1.0000000 )


      isym = 26     inv. 180 deg rotation - cart. axis [0,0,1]   

 cryst.   s(26) = (     1          0          0      )
                  (     0          1          0      )
                  (     0          0         -1      )

 cart.    s(26) = (  1.0000000  0.0000000  0.0000000 )
                  (  0.0000000  1.0000000  0.0000000 )
                  (  0.0000000  0.0000000 -1.0000000 )


      isym = 27     inv. 180 deg rotation - cart. axis [0,1,0]   

 cryst.   s(27) = (     1          0          0      )
                  (     0         -1          0      )
                  (     0          0          1      )

 cart.    s(27) = (  1.0000000  0.0000000  0.0000000 )
                  (  0.0000000 -1.0000000  0.0000000 )
                  (  0.0000000  0.0000000  1.0000000 )


      isym = 28     inv. 180 deg rotation - cart. axis [1,0,0]   

 cryst.   s(28) = (    -1          0          0      )
                  (     0          1          0      )
                  (     0          0          1      )

 cart.    s(28) = ( -1.0000000  0.0000000  0.0000000 )
                  (  0.0000000  1.0000000  0.0000000 )
                  (  0.0000000  0.0000000  1.0000000 )


      isym = 29     inv. 180 deg rotation - cart. axis [1,1,0]   

 cryst.   s(29) = (     0         -1          0      )
                  (    -1          0          0      )
                  (     0          0          1      )

 cart.    s(29) = (  0.0000000 -1.0000000  0.0000000 )
                  ( -1.0000000  0.0000000  0.0000000 )
                  (  0.0000000  0.0000000  1.0000000 )


      isym = 30     inv. 180 deg rotation - cart. axis [1,-1,0]  

 cryst.   s(30) = (     0          1          0      )
                  (     1          0          0      )
                  (     0          0          1      )

 cart.    s(30) = (  0.0000000  1.0000000  0.0000000 )
                  (  1.0000000  0.0000000  0.0000000 )
                  (  0.0000000  0.0000000  1.0000000 )


      isym = 31     inv.  90 deg rotation - cart. axis [0,0,-1]  

 cryst.   s(31) = (     0          1          0      )
                  (    -1          0          0      )
                  (     0          0         -1      )

 cart.    s(31) = (  0.0000000 -1.0000000  0.0000000 )
                  (  1.0000000  0.0000000  0.0000000 )
                  (  0.0000000  0.0000000 -1.0000000 )


      isym = 32     inv.  90 deg rotation - cart. axis [0,0,1]   

 cryst.   s(32) = (     0         -1          0      )
                  (     1          0          0      )
                  (     0          0         -1      )

 cart.    s(32) = (  0.0000000  1.0000000  0.0000000 )
                  ( -1.0000000  0.0000000  0.0000000 )
                  (  0.0000000  0.0000000 -1.0000000 )


      isym = 33     inv. 180 deg rotation - cart. axis [1,0,1]   

 cryst.   s(33) = (     0          0         -1      )
                  (     0          1          0      )
                  (    -1          0          0      )

 cart.    s(33) = (  0.0000000  0.0000000 -1.0000000 )
                  (  0.0000000  1.0000000  0.0000000 )
                  ( -1.0000000  0.0000000  0.0000000 )


      isym = 34     inv. 180 deg rotation - cart. axis [-1,0,1]  

 cryst.   s(34) = (     0          0          1      )
                  (     0          1          0      )
                  (     1          0          0      )

 cart.    s(34) = (  0.0000000  0.0000000  1.0000000 )
                  (  0.0000000  1.0000000  0.0000000 )
                  (  1.0000000  0.0000000  0.0000000 )


      isym = 35     inv.  90 deg rotation - cart. axis [0,1,0]   

 cryst.   s(35) = (     0          0          1      )
                  (     0         -1          0      )
                  (    -1          0          0      )

 cart.    s(35) = (  0.0000000  0.0000000 -1.0000000 )
                  (  0.0000000 -1.0000000  0.0000000 )
                  (  1.0000000  0.0000000  0.0000000 )


      isym = 36     inv.  90 deg rotation - cart. axis [0,-1,0]  

 cryst.   s(36) = (     0          0         -1      )
                  (     0         -1          0      )
                  (     1          0          0      )

 cart.    s(36) = (  0.0000000  0.0000000  1.0000000 )
                  (  0.0000000 -1.0000000  0.0000000 )
                  ( -1.0000000  0.0000000  0.0000000 )


      isym = 37     inv. 180 deg rotation - cart. axis [0,1,1]   

 cryst.   s(37) = (     1          0          0      )
                  (     0          0         -1      )
                  (     0         -1          0      )

 cart.    s(37) = (  1.0000000  0.0000000  0.0000000 )
                  (  0.0000000  0.0000000 -1.0000000 )
                  (  0.0000000 -1.0000000  0.0000000 )


      isym = 38     inv. 180 deg rotation - cart. axis [0,1,-1]  

 cryst.   s(38) = (     1          0          0      )
                  (     0          0          1      )
                  (     0          1          0      )

 cart.    s(38) = (  1.0000000  0.0000000  0.0000000 )
                  (  0.0000000  0.0000000  1.0000000 )
                  (  0.0000000  1.0000000  0.0000000 )


      isym = 39     inv.  90 deg rotation - cart. axis [-1,0,0]  

 cryst.   s(39) = (    -1          0          0      )
                  (     0          0          1      )
                  (     0         -1          0      )

 cart.    s(39) = ( -1.0000000  0.0000000  0.0000000 )
                  (  0.0000000  0.0000000 -1.0000000 )
                  (  0.0000000  1.0000000  0.0000000 )


      isym = 40     inv.  90 deg rotation - cart. axis [1,0,0]   

 cryst.   s(40) = (    -1          0          0      )
                  (     0          0         -1      )
                  (     0          1          0      )

 cart.    s(40) = ( -1.0000000  0.0000000  0.0000000 )
                  (  0.0000000  0.0000000  1.0000000 )
                  (  0.0000000 -1.0000000  0.0000000 )


      isym = 41     inv. 120 deg rotation - cart. axis [-1,-1,-1]

 cryst.   s(41) = (     0          0         -1      )
                  (    -1          0          0      )
                  (     0         -1          0      )

 cart.    s(41) = (  0.0000000 -1.0000000  0.0000000 )
                  (  0.0000000  0.0000000 -1.0000000 )
                  ( -1.0000000  0.0000000  0.0000000 )


      isym = 42     inv. 120 deg rotation - cart. axis [-1,1,1]  

 cryst.   s(42) = (     0          0          1      )
                  (     1          0          0      )
                  (     0         -1          0      )

 cart.    s(42) = (  0.0000000  1.0000000  0.0000000 )
                  (  0.0000000  0.0000000 -1.0000000 )
                  (  1.0000000  0.0000000  0.0000000 )


      isym = 43     inv. 120 deg rotation - cart. axis [1,1,-1]  

 cryst.   s(43) = (     0          0          1      )
                  (    -1          0          0      )
                  (     0          1          0      )

 cart.    s(43) = (  0.0000000 -1.0000000  0.0000000 )
                  (  0.0000000  0.0000000  1.0000000 )
                  (  1.0000000  0.0000000  0.0000000 )


      isym = 44     inv. 120 deg rotation - cart. axis [1,-1,1]  

 cryst.   s(44) = (     0          0         -1      )
                  (     1          0          0      )
                  (     0          1          0      )

 cart.    s(44) = (  0.0000000  1.0000000  0.0000000 )
                  (  0.0000000  0.0000000  1.0000000 )
                  ( -1.0000000  0.0000000  0.0000000 )


      isym = 45     inv. 120 deg rotation - cart. axis [1,1,1]   

 cryst.   s(45) = (     0         -1          0      )
                  (     0          0         -1      )
                  (    -1          0          0      )

 cart.    s(45) = (  0.0000000  0.0000000 -1.0000000 )
                  ( -1.0000000  0.0000000  0.0000000 )
                  (  0.0000000 -1.0000000  0.0000000 )


      isym = 46     inv. 120 deg rotation - cart. axis [-1,1,-1] 

 cryst.   s(46) = (     0          1          0      )
                  (     0          0          1      )
                  (    -1          0          0      )

 cart.    s(46) = (  0.0000000  0.0000000 -1.0000000 )
                  (  1.0000000  0.0000000  0.0000000 )
                  (  0.0000000  1.0000000  0.0000000 )


      isym = 47     inv. 120 deg rotation - cart. axis [1,-1,-1] 

 cryst.   s(47) = (     0          1          0      )
                  (     0          0         -1      )
                  (     1          0          0      )

 cart.    s(47) = (  0.0000000  0.0000000  1.0000000 )
                  (  1.0000000  0.0000000  0.0000000 )
                  (  0.0000000 -1.0000000  0.0000000 )


      isym = 48     inv. 120 deg rotation - cart. axis [-1,-1,1] 

 cryst.   s(48) = (     0         -1          0      )
                  (     0          0          1      )
                  (     1          0          0      )

 cart.    s(48) = (  0.0000000  0.0000000  1.0000000 )
                  ( -1.0000000  0.0000000  0.0000000 )
                  (  0.0000000  1.0000000  0.0000000 )


   Cartesian axes

     site n.     atom                  positions (alat units)
         1        Zn     tau(   1) = (   0.0000000   0.0000000   0.0000000  )
         2        O      tau(   2) = (   0.5000000   0.5000000   0.5000000  )

   Crystallographic axes

     site n.     atom                  positions (cryst. coord.)
         1        Zn     tau(   1) = (  0.0000000  0.0000000  0.0000000  )
         2        O      tau(   2) = (  0.5000000  0.5000000  0.5000000  )

     number of k points=    84  Marzari-Vanderbilt smearing, width (Ry)=  0.0147
                       cart. coord. in units 2pi/alat
        k(    1) = (   0.0000000   0.0000000   0.0000000), wk =   0.0011574
        k(    2) = (   0.0000000   0.0000000   0.0833333), wk =   0.0069444
        k(    3) = (   0.0000000   0.0000000   0.1666667), wk =   0.0069444
        k(    4) = (   0.0000000   0.0000000   0.2500000), wk =   0.0069444
        k(    5) = (   0.0000000   0.0000000   0.3333333), wk =   0.0069444
        k(    6) = (   0.0000000   0.0000000   0.4166667), wk =   0.0069444
        k(    7) = (   0.0000000   0.0000000  -0.5000000), wk =   0.0034722
        k(    8) = (   0.0000000   0.0833333   0.0833333), wk =   0.0138889
        k(    9) = (   0.0000000   0.0833333   0.1666667), wk =   0.0277778
        k(   10) = (   0.0000000   0.0833333   0.2500000), wk =   0.0277778
        k(   11) = (   0.0000000   0.0833333   0.3333333), wk =   0.0277778
        k(   12) = (   0.0000000   0.0833333   0.4166667), wk =   0.0277778
        k(   13) = (   0.0000000   0.0833333  -0.5000000), wk =   0.0138889
        k(   14) = (   0.0000000   0.1666667   0.1666667), wk =   0.0138889
        k(   15) = (   0.0000000   0.1666667   0.2500000), wk =   0.0277778
        k(   16) = (   0.0000000   0.1666667   0.3333333), wk =   0.0277778
        k(   17) = (   0.0000000   0.1666667   0.4166667), wk =   0.0277778
        k(   18) = (   0.0000000   0.1666667  -0.5000000), wk =   0.0138889
        k(   19) = (   0.0000000   0.2500000   0.2500000), wk =   0.0138889
        k(   20) = (   0.0000000   0.2500000   0.3333333), wk =   0.0277778
        k(   21) = (   0.0000000   0.2500000   0.4166667), wk =   0.0277778
        k(   22) = (   0.0000000   0.2500000  -0.5000000), wk =   0.0138889
        k(   23) = (   0.0000000   0.3333333   0.3333333), wk =   0.0138889
        k(   24) = (   0.0000000   0.3333333   0.4166667), wk =   0.0277778
        k(   25) = (   0.0000000   0.3333333  -0.5000000), wk =   0.0138889
        k(   26) = (   0.0000000   0.4166667   0.4166667), wk =   0.0138889
        k(   27) = (   0.0000000   0.4166667  -0.5000000), wk =   0.0138889
        k(   28) = (   0.0000000  -0.5000000  -0.5000000), wk =   0.0034722
        k(   29) = (   0.0833333   0.0833333   0.0833333), wk =   0.0092593
        k(   30) = (   0.0833333   0.0833333   0.1666667), wk =   0.0277778
        k(   31) = (   0.0833333   0.0833333   0.2500000), wk =   0.0277778
        k(   32) = (   0.0833333   0.0833333   0.3333333), wk =   0.0277778
        k(   33) = (   0.0833333   0.0833333   0.4166667), wk =   0.0277778
        k(   34) = (   0.0833333   0.0833333  -0.5000000), wk =   0.0138889
        k(   35) = (   0.0833333   0.1666667   0.1666667), wk =   0.0277778
        k(   36) = (   0.0833333   0.1666667   0.2500000), wk =   0.0555556
        k(   37) = (   0.0833333   0.1666667   0.3333333), wk =   0.0555556
        k(   38) = (   0.0833333   0.1666667   0.4166667), wk =   0.0555556
        k(   39) = (   0.0833333   0.1666667  -0.5000000), wk =   0.0277778
        k(   40) = (   0.0833333   0.2500000   0.2500000), wk =   0.0277778
        k(   41) = (   0.0833333   0.2500000   0.3333333), wk =   0.0555556
        k(   42) = (   0.0833333   0.2500000   0.4166667), wk =   0.0555556
        k(   43) = (   0.0833333   0.2500000  -0.5000000), wk =   0.0277778
        k(   44) = (   0.0833333   0.3333333   0.3333333), wk =   0.0277778
        k(   45) = (   0.0833333   0.3333333   0.4166667), wk =   0.0555556
        k(   46) = (   0.0833333   0.3333333  -0.5000000), wk =   0.0277778
        k(   47) = (   0.0833333   0.4166667   0.4166667), wk =   0.0277778
        k(   48) = (   0.0833333   0.4166667  -0.5000000), wk =   0.0277778
        k(   49) = (   0.0833333  -0.5000000  -0.5000000), wk =   0.0069444
        k(   50) = (   0.1666667   0.1666667   0.1666667), wk =   0.0092593
        k(   51) = (   0.1666667   0.1666667   0.2500000), wk =   0.0277778
        k(   52) = (   0.1666667   0.1666667   0.3333333), wk =   0.0277778
        k(   53) = (   0.1666667   0.1666667   0.4166667), wk =   0.0277778
        k(   54) = (   0.1666667   0.1666667  -0.5000000), wk =   0.0138889
        k(   55) = (   0.1666667   0.2500000   0.2500000), wk =   0.0277778
        k(   56) = (   0.1666667   0.2500000   0.3333333), wk =   0.0555556
        k(   57) = (   0.1666667   0.2500000   0.4166667), wk =   0.0555556
        k(   58) = (   0.1666667   0.2500000  -0.5000000), wk =   0.0277778
        k(   59) = (   0.1666667   0.3333333   0.3333333), wk =   0.0277778
        k(   60) = (   0.1666667   0.3333333   0.4166667), wk =   0.0555556
        k(   61) = (   0.1666667   0.3333333  -0.5000000), wk =   0.0277778
        k(   62) = (   0.1666667   0.4166667   0.4166667), wk =   0.0277778
        k(   63) = (   0.1666667   0.4166667  -0.5000000), wk =   0.0277778
        k(   64) = (   0.1666667  -0.5000000  -0.5000000), wk =   0.0069444
        k(   65) = (   0.2500000   0.2500000   0.2500000), wk =   0.0092593
        k(   66) = (   0.2500000   0.2500000   0.3333333), wk =   0.0277778
        k(   67) = (   0.2500000   0.2500000   0.4166667), wk =   0.0277778
        k(   68) = (   0.2500000   0.2500000  -0.5000000), wk =   0.0138889
        k(   69) = (   0.2500000   0.3333333   0.3333333), wk =   0.0277778
        k(   70) = (   0.2500000   0.3333333   0.4166667), wk =   0.0555556
        k(   71) = (   0.2500000   0.3333333  -0.5000000), wk =   0.0277778
        k(   72) = (   0.2500000   0.4166667   0.4166667), wk =   0.0277778
        k(   73) = (   0.2500000   0.4166667  -0.5000000), wk =   0.0277778
        k(   74) = (   0.2500000  -0.5000000  -0.5000000), wk =   0.0069444
        k(   75) = (   0.3333333   0.3333333   0.3333333), wk =   0.0092593
        k(   76) = (   0.3333333   0.3333333   0.4166667), wk =   0.0277778
        k(   77) = (   0.3333333   0.3333333  -0.5000000), wk =   0.0138889
        k(   78) = (   0.3333333   0.4166667   0.4166667), wk =   0.0277778
        k(   79) = (   0.3333333   0.4166667  -0.5000000), wk =   0.0277778
        k(   80) = (   0.3333333  -0.5000000  -0.5000000), wk =   0.0069444
        k(   81) = (   0.4166667   0.4166667   0.4166667), wk =   0.0092593
        k(   82) = (   0.4166667   0.4166667  -0.5000000), wk =   0.0138889
        k(   83) = (   0.4166667  -0.5000000  -0.5000000), wk =   0.0069444
        k(   84) = (  -0.5000000  -0.5000000  -0.5000000), wk =   0.0011574

                       cryst. coord.
        k(    1) = (   0.0000000   0.0000000   0.0000000), wk =   0.0011574
        k(    2) = (   0.0000000   0.0000000   0.0833333), wk =   0.0069444
        k(    3) = (   0.0000000   0.0000000   0.1666667), wk =   0.0069444
        k(    4) = (   0.0000000   0.0000000   0.2500000), wk =   0.0069444
        k(    5) = (   0.0000000   0.0000000   0.3333333), wk =   0.0069444
        k(    6) = (   0.0000000   0.0000000   0.4166667), wk =   0.0069444
        k(    7) = (   0.0000000   0.0000000  -0.5000000), wk =   0.0034722
        k(    8) = (   0.0000000   0.0833333   0.0833333), wk =   0.0138889
        k(    9) = (   0.0000000   0.0833333   0.1666667), wk =   0.0277778
        k(   10) = (   0.0000000   0.0833333   0.2500000), wk =   0.0277778
        k(   11) = (   0.0000000   0.0833333   0.3333333), wk =   0.0277778
        k(   12) = (   0.0000000   0.0833333   0.4166667), wk =   0.0277778
        k(   13) = (   0.0000000   0.0833333  -0.5000000), wk =   0.0138889
        k(   14) = (   0.0000000   0.1666667   0.1666667), wk =   0.0138889
        k(   15) = (   0.0000000   0.1666667   0.2500000), wk =   0.0277778
        k(   16) = (   0.0000000   0.1666667   0.3333333), wk =   0.0277778
        k(   17) = (   0.0000000   0.1666667   0.4166667), wk =   0.0277778
        k(   18) = (   0.0000000   0.1666667  -0.5000000), wk =   0.0138889
        k(   19) = (   0.0000000   0.2500000   0.2500000), wk =   0.0138889
        k(   20) = (   0.0000000   0.2500000   0.3333333), wk =   0.0277778
        k(   21) = (   0.0000000   0.2500000   0.4166667), wk =   0.0277778
        k(   22) = (   0.0000000   0.2500000  -0.5000000), wk =   0.0138889
        k(   23) = (   0.0000000   0.3333333   0.3333333), wk =   0.0138889
        k(   24) = (   0.0000000   0.3333333   0.4166667), wk =   0.0277778
        k(   25) = (   0.0000000   0.3333333  -0.5000000), wk =   0.0138889
        k(   26) = (   0.0000000   0.4166667   0.4166667), wk =   0.0138889
        k(   27) = (   0.0000000   0.4166667  -0.5000000), wk =   0.0138889
        k(   28) = (   0.0000000  -0.5000000  -0.5000000), wk =   0.0034722
        k(   29) = (   0.0833333   0.0833333   0.0833333), wk =   0.0092593
        k(   30) = (   0.0833333   0.0833333   0.1666667), wk =   0.0277778
        k(   31) = (   0.0833333   0.0833333   0.2500000), wk =   0.0277778
        k(   32) = (   0.0833333   0.0833333   0.3333333), wk =   0.0277778
        k(   33) = (   0.0833333   0.0833333   0.4166667), wk =   0.0277778
        k(   34) = (   0.0833333   0.0833333  -0.5000000), wk =   0.0138889
        k(   35) = (   0.0833333   0.1666667   0.1666667), wk =   0.0277778
        k(   36) = (   0.0833333   0.1666667   0.2500000), wk =   0.0555556
        k(   37) = (   0.0833333   0.1666667   0.3333333), wk =   0.0555556
        k(   38) = (   0.0833333   0.1666667   0.4166667), wk =   0.0555556
        k(   39) = (   0.0833333   0.1666667  -0.5000000), wk =   0.0277778
        k(   40) = (   0.0833333   0.2500000   0.2500000), wk =   0.0277778
        k(   41) = (   0.0833333   0.2500000   0.3333333), wk =   0.0555556
        k(   42) = (   0.0833333   0.2500000   0.4166667), wk =   0.0555556
        k(   43) = (   0.0833333   0.2500000  -0.5000000), wk =   0.0277778
        k(   44) = (   0.0833333   0.3333333   0.3333333), wk =   0.0277778
        k(   45) = (   0.0833333   0.3333333   0.4166667), wk =   0.0555556
        k(   46) = (   0.0833333   0.3333333  -0.5000000), wk =   0.0277778
        k(   47) = (   0.0833333   0.4166667   0.4166667), wk =   0.0277778
        k(   48) = (   0.0833333   0.4166667  -0.5000000), wk =   0.0277778
        k(   49) = (   0.0833333  -0.5000000  -0.5000000), wk =   0.0069444
        k(   50) = (   0.1666667   0.1666667   0.1666667), wk =   0.0092593
        k(   51) = (   0.1666667   0.1666667   0.2500000), wk =   0.0277778
        k(   52) = (   0.1666667   0.1666667   0.3333333), wk =   0.0277778
        k(   53) = (   0.1666667   0.1666667   0.4166667), wk =   0.0277778
        k(   54) = (   0.1666667   0.1666667  -0.5000000), wk =   0.0138889
        k(   55) = (   0.1666667   0.2500000   0.2500000), wk =   0.0277778
        k(   56) = (   0.1666667   0.2500000   0.3333333), wk =   0.0555556
        k(   57) = (   0.1666667   0.2500000   0.4166667), wk =   0.0555556
        k(   58) = (   0.1666667   0.2500000  -0.5000000), wk =   0.0277778
        k(   59) = (   0.1666667   0.3333333   0.3333333), wk =   0.0277778
        k(   60) = (   0.1666667   0.3333333   0.4166667), wk =   0.0555556
        k(   61) = (   0.1666667   0.3333333  -0.5000000), wk =   0.0277778
        k(   62) = (   0.1666667   0.4166667   0.4166667), wk =   0.0277778
        k(   63) = (   0.1666667   0.4166667  -0.5000000), wk =   0.0277778
        k(   64) = (   0.1666667  -0.5000000  -0.5000000), wk =   0.0069444
        k(   65) = (   0.2500000   0.2500000   0.2500000), wk =   0.0092593
        k(   66) = (   0.2500000   0.2500000   0.3333333), wk =   0.0277778
        k(   67) = (   0.2500000   0.2500000   0.4166667), wk =   0.0277778
        k(   68) = (   0.2500000   0.2500000  -0.5000000), wk =   0.0138889
        k(   69) = (   0.2500000   0.3333333   0.3333333), wk =   0.0277778
        k(   70) = (   0.2500000   0.3333333   0.4166667), wk =   0.0555556
        k(   71) = (   0.2500000   0.3333333  -0.5000000), wk =   0.0277778
        k(   72) = (   0.2500000   0.4166667   0.4166667), wk =   0.0277778
        k(   73) = (   0.2500000   0.4166667  -0.5000000), wk =   0.0277778
        k(   74) = (   0.2500000  -0.5000000  -0.5000000), wk =   0.0069444
        k(   75) = (   0.3333333   0.3333333   0.3333333), wk =   0.0092593
        k(   76) = (   0.3333333   0.3333333   0.4166667), wk =   0.0277778
        k(   77) = (   0.3333333   0.3333333  -0.5000000), wk =   0.0138889
        k(   78) = (   0.3333333   0.4166667   0.4166667), wk =   0.0277778
        k(   79) = (   0.3333333   0.4166667  -0.5000000), wk =   0.0277778
        k(   80) = (   0.3333333  -0.5000000  -0.5000000), wk =   0.0069444
        k(   81) = (   0.4166667   0.4166667   0.4166667), wk =   0.0092593
        k(   82) = (   0.4166667   0.4166667  -0.5000000), wk =   0.0138889
        k(   83) = (   0.4166667  -0.5000000  -0.5000000), wk =   0.0069444
        k(   84) = (  -0.5000000  -0.5000000  -0.5000000), wk =   0.0011574

     Dense  grid:    18853 G-vectors     FFT dimensions: (  36,  36,  36)

     Smooth grid:     6667 G-vectors     FFT dimensions: (  24,  24,  24)

     Dynamical RAM for                 wfc:       0.22 MB

     Dynamical RAM for     wfc (w. buffer):      18.39 MB

     Dynamical RAM for           str. fact:       0.58 MB

     Dynamical RAM for           local pot:       0.00 MB

     Dynamical RAM for          nlocal pot:       0.33 MB

     Dynamical RAM for                qrad:       3.21 MB

     Dynamical RAM for          rho,v,vnew:       1.93 MB

     Dynamical RAM for               rhoin:       0.64 MB

     Dynamical RAM for            rho*nmix:       4.60 MB

     Dynamical RAM for           G-vectors:       1.13 MB

     Dynamical RAM for          h,s,v(r/c):       0.05 MB

     Dynamical RAM for          <psi|beta>:       0.01 MB

     Dynamical RAM for                 psi:       0.43 MB

     Dynamical RAM for                hpsi:       0.43 MB

     Dynamical RAM for                spsi:       0.43 MB

     Dynamical RAM for      wfcinit/wfcrot:       0.44 MB

     Dynamical RAM for           addusdens:      53.80 MB

     Dynamical RAM for          addusforce:      53.94 MB

     Dynamical RAM for         addusstress:      57.82 MB

     Estimated static dynamical RAM per process >      28.85 MB

     Estimated max dynamical RAM per process >      91.28 MB

     Check: negative core charge=   -0.000003

     Initial potential from superposition of free atoms

     starting charge      25.9999, renormalised to      26.0000
     Starting wfcs are   17 randomized atomic wfcs
     Checking if some PAW data can be deallocated... 

     total cpu time spent up to now is        6.1 secs

     Self-consistent Calculation

     iteration #  1     ecut=    50.00 Ry     beta= 0.40
     Davidson diagonalization with overlap

---- Real-time Memory Report at c_bands before calling an iterative solver
            95 MiB given to the printing process from OS
             0 MiB allocation reported by mallinfo(arena+hblkhd)
          4495 MiB available memory on the node where the printing process lives
------------------
     ethr =  1.00E-02,  avg # of iterations =  2.7

     total cpu time spent up to now is       25.4 secs

     WARNING: integrated charge=    26.00004856, expected=    26.00000000

     total energy              =    -503.02802130 Ry
     estimated scf accuracy    <       0.48891254 Ry

     iteration #  2     ecut=    50.00 Ry     beta= 0.40
     Davidson diagonalization with overlap

---- Real-time Memory Report at c_bands before calling an iterative solver
           130 MiB given to the printing process from OS
             0 MiB allocation reported by mallinfo(arena+hblkhd)
          4472 MiB available memory on the node where the printing process lives
------------------
     ethr =  1.88E-03,  avg # of iterations =  2.2
     Minimization algorithm failed to find Fermi energy: reverting to bisection
     Possible cause: smearing is larger than the electronic band-gap.

     total cpu time spent up to now is       49.6 secs

     WARNING: integrated charge=    26.00003475, expected=    26.00000000

     total energy              =    -503.16176942 Ry
     estimated scf accuracy    <       0.09678975 Ry

     iteration #  3     ecut=    50.00 Ry     beta= 0.40
     Davidson diagonalization with overlap

---- Real-time Memory Report at c_bands before calling an iterative solver
           130 MiB given to the printing process from OS
             0 MiB allocation reported by mallinfo(arena+hblkhd)
          4466 MiB available memory on the node where the printing process lives
------------------
     ethr =  3.72E-04,  avg # of iterations =  2.1

     total cpu time spent up to now is       61.5 secs

     WARNING: integrated charge=    26.00578135, expected=    26.00000000

     total energy              =    -503.16850119 Ry
     estimated scf accuracy    <       0.00545578 Ry

     iteration #  4     ecut=    50.00 Ry     beta= 0.40
     Davidson diagonalization with overlap

---- Real-time Memory Report at c_bands before calling an iterative solver
           130 MiB given to the printing process from OS
             0 MiB allocation reported by mallinfo(arena+hblkhd)
          4469 MiB available memory on the node where the printing process lives
------------------
     ethr =  2.10E-05,  avg # of iterations =  2.3
     Minimization algorithm failed to find Fermi energy: reverting to bisection
     Possible cause: smearing is larger than the electronic band-gap.

     total cpu time spent up to now is       87.8 secs

     WARNING: integrated charge=    26.00379090, expected=    26.00000000

     total energy              =    -503.17634694 Ry
     estimated scf accuracy    <       0.00057141 Ry

     iteration #  5     ecut=    50.00 Ry     beta= 0.40
     Davidson diagonalization with overlap

---- Real-time Memory Report at c_bands before calling an iterative solver
           130 MiB given to the printing process from OS
             0 MiB allocation reported by mallinfo(arena+hblkhd)
          4410 MiB available memory on the node where the printing process lives
------------------
     ethr =  2.20E-06,  avg # of iterations =  2.3
     Minimization algorithm failed to find Fermi energy: reverting to bisection
     Possible cause: smearing is larger than the electronic band-gap.

     total cpu time spent up to now is      109.2 secs

     WARNING: integrated charge=    26.00020729, expected=    26.00000000

     total energy              =    -503.17640098 Ry
     estimated scf accuracy    <       0.00000859 Ry

     iteration #  6     ecut=    50.00 Ry     beta= 0.40
     Davidson diagonalization with overlap

---- Real-time Memory Report at c_bands before calling an iterative solver
           130 MiB given to the printing process from OS
             0 MiB allocation reported by mallinfo(arena+hblkhd)
          4410 MiB available memory on the node where the printing process lives
------------------
     ethr =  3.30E-08,  avg # of iterations =  2.0
     Minimization algorithm failed to find Fermi energy: reverting to bisection
     Possible cause: smearing is larger than the electronic band-gap.

     total cpu time spent up to now is      127.9 secs

     WARNING: integrated charge=    26.00001042, expected=    26.00000000

     total energy              =    -503.17640305 Ry
     estimated scf accuracy    <       0.00000738 Ry

     iteration #  7     ecut=    50.00 Ry     beta= 0.40
     Davidson diagonalization with overlap

---- Real-time Memory Report at c_bands before calling an iterative solver
           130 MiB given to the printing process from OS
             0 MiB allocation reported by mallinfo(arena+hblkhd)
          4405 MiB available memory on the node where the printing process lives
------------------
     ethr =  2.84E-08,  avg # of iterations =  1.0
     Minimization algorithm failed to find Fermi energy: reverting to bisection
     Possible cause: smearing is larger than the electronic band-gap.

     total cpu time spent up to now is      140.4 secs

     WARNING: integrated charge=    25.99996385, expected=    26.00000000

     total energy              =    -503.17640332 Ry
     estimated scf accuracy    <       0.00000059 Ry

     iteration #  8     ecut=    50.00 Ry     beta= 0.40
     Davidson diagonalization with overlap

---- Real-time Memory Report at c_bands before calling an iterative solver
           130 MiB given to the printing process from OS
             0 MiB allocation reported by mallinfo(arena+hblkhd)
          4404 MiB available memory on the node where the printing process lives
------------------
     ethr =  2.28E-09,  avg # of iterations =  2.0
     Minimization algorithm failed to find Fermi energy: reverting to bisection
     Possible cause: smearing is larger than the electronic band-gap.

     total cpu time spent up to now is      150.2 secs

     total energy              =    -503.17640348 Ry
     estimated scf accuracy    <       0.00000006 Ry

     iteration #  9     ecut=    50.00 Ry     beta= 0.40
     Davidson diagonalization with overlap

---- Real-time Memory Report at c_bands before calling an iterative solver
           130 MiB given to the printing process from OS
             0 MiB allocation reported by mallinfo(arena+hblkhd)
          4405 MiB available memory on the node where the printing process lives
------------------
     ethr =  2.16E-10,  avg # of iterations =  1.7
     Minimization algorithm failed to find Fermi energy: reverting to bisection
     Possible cause: smearing is larger than the electronic band-gap.

     total cpu time spent up to now is      169.4 secs

     End of self-consistent calculation

          k = 0.0000 0.0000 0.0000 (   847 PWs)   bands (ev):

  -113.4072 -67.5884 -67.5884 -67.5884  -6.6424   4.9886   4.9886   5.9310
     5.9310   5.9310  10.1832  10.2765  10.2765  10.2765  25.1227  25.1227
    27.8640

     occupation numbers 
     1.0000   1.0000   1.0000   1.0000   1.0000   1.0000   1.0000   1.0000
     1.0000   1.0000   1.0000   1.0000   1.0000   1.0000   0.0000   0.0000
     0.0000

          k = 0.0000 0.0000 0.0833 (   827 PWs)   bands (ev):

  -113.4071 -67.5891 -67.5882 -67.5882  -6.5810   4.9962   5.0039   5.8932
     5.8932   5.9331   9.0665  10.3483  10.3483  11.3449  24.3604  25.2233
    27.7880

     occupation numbers 
     1.0000   1.0000   1.0000   1.0000   1.0000   1.0000   1.0000   1.0000
     1.0000   1.0000   1.0000   1.0000   1.0000   0.4903   0.0000   0.0000
     0.0000

          k = 0.0000 0.0000 0.1667 (   832 PWs)   bands (ev):

  -113.4069 -67.5916 -67.5881 -67.5881  -6.4069   5.0037   5.0168   5.7940
     5.7940   5.9384   7.9782  10.5423  10.5423  12.3731  22.9125  25.5267
    27.5599

     occupation numbers 
     1.0000   1.0000   1.0000   1.0000   1.0000   1.0000   1.0000   1.0000
     1.0000   1.0000   1.0000   1.0000   1.0000   0.0000   0.0000   0.0000
     0.0000

          k = 0.0000 0.0000 0.2500 (   844 PWs)   bands (ev):

  -113.4068 -67.5951 -67.5879 -67.5879  -6.1519   4.8402   5.0450   5.6677
     5.6677   5.9458   7.1852  10.8042  10.8042  13.3434  21.3035  26.0361
    27.2043

     occupation numbers 
     1.0000   1.0000   1.0000   1.0000   1.0000   1.0000   1.0000   1.0000
     1.0000   1.0000   1.0000   1.0031   1.0031   0.0000   0.0000   0.0000
     0.0000

          k = 0.0000 0.0000 0.3333 (   824 PWs)   bands (ev):

  -113.4065 -67.5983 -67.5875 -67.5875  -5.8727   4.4157   5.0735   5.5504
     5.5504   5.9533   6.8532  11.0649  11.0649  14.3164  19.6982  26.8057
    26.8057

     occupation numbers 
     1.0000   1.0000   1.0000   1.0000   1.0000   1.0000   1.0000   1.0000
     1.0000   1.0000   1.0000   1.0806   1.0806   0.0000   0.0000   0.0000
     0.0000

          k = 0.0000 0.0000 0.4167 (   828 PWs)   bands (ev):

  -113.4064 -67.6008 -67.5874 -67.5874  -5.6493   3.9702   5.0943   5.4692
     5.4692   5.9586   6.8059  11.2564  11.2564  15.3371  18.2214  26.4914
    26.4914

     occupation numbers 
     1.0000   1.0000   1.0000   1.0000   1.0000   1.0000   1.0000   1.0000
     1.0000   1.0000   1.0000   0.8137   0.8137   0.0000   0.0000   0.0000
     0.0000

          k = 0.0000 0.0000-0.5000 (   820 PWs)   bands (ev):

  -113.4063 -67.6016 -67.5873 -67.5873  -5.5627   3.7892   5.1019   5.4404
     5.4404   5.9607   6.8145  11.3269  11.3269  16.0960  17.2969  26.3724
    26.3724

     occupation numbers 
     1.0000   1.0000   1.0000   1.0000   1.0000   1.0000   1.0000   1.0000
     1.0000   1.0000   1.0000   0.5574   0.5574   0.0000   0.0000   0.0000
     0.0000

          k = 0.0000 0.0833 0.0833 (   827 PWs)   bands (ev):

  -113.4070 -67.5891 -67.5891 -67.5881  -6.5206   5.0061   5.0209   5.8520
     5.8778   5.9154   8.7633  10.0695  10.4147  11.9481  24.2274  24.7143
    27.7317

     occupation numbers 
     1.0000   1.0000   1.0000   1.0000   1.0000   1.0000   1.0000   1.0000
     1.0000   1.0000   1.0000   1.0000   1.0000   0.0000   0.0000   0.0000
     0.0000

          k = 0.0000 0.0833 0.1667 (   828 PWs)   bands (ev):

  -113.4069 -67.5915 -67.5889 -67.5880  -6.3498   5.0136   5.0462   5.7485
     5.7924   5.9145   7.9626  10.0833  10.5941  12.8565  22.9590  24.7124
    27.5566

     occupation numbers 
     1.0000   1.0000   1.0000   1.0000   1.0000   1.0000   1.0000   1.0000
     1.0000   1.0000   1.0000   1.0000   1.0000   0.0000   0.0000   0.0000
     0.0000

          k = 0.0000 0.0833 0.2500 (   830 PWs)   bands (ev):

  -113.4067 -67.5949 -67.5887 -67.5878  -6.0998   4.8775   5.0669   5.6351
     5.6738   5.9231   7.2286  10.3189  10.8367  13.7529  21.3334  24.9396
    27.2688

     occupation numbers 
     1.0000   1.0000   1.0000   1.0000   1.0000   1.0000   1.0000   1.0000
     1.0000   1.0000   1.0000   1.0000   1.0058   0.0000   0.0000   0.0000
     0.0000

          k = 0.0000 0.0833 0.3333 (   832 PWs)   bands (ev):

  -113.4065 -67.5983 -67.5885 -67.5875  -5.8268   4.4844   5.0964   5.5406
     5.5622   5.9325   6.8806  10.5974  11.0783  14.6576  19.7057  25.1583
    26.9306

     occupation numbers 
     1.0000   1.0000   1.0000   1.0000   1.0000   1.0000   1.0000   1.0000
     1.0000   1.0000   1.0000   1.0000   1.0828   0.0000   0.0000   0.0000
     0.0000

          k = 0.0000 0.0833 0.4167 (   836 PWs)   bands (ev):

  -113.4063 -67.6007 -67.5884 -67.5874  -5.6089   4.0653   5.1201   5.4668
     5.4844   5.9395   6.8160  10.8162  11.2557  15.6342  18.2048  25.2774
    26.6556

     occupation numbers 
     1.0000   1.0000   1.0000   1.0000   1.0000   1.0000   1.0000   1.0000
     1.0000   1.0000   1.0000   1.0039   0.8163   0.0000   0.0000   0.0000
     0.0000

          k = 0.0000 0.0833-0.5000 (   834 PWs)   bands (ev):

  -113.4063 -67.6015 -67.5883 -67.5874  -5.5246   3.8934   5.1293   5.4383
     5.4568   5.9421   6.8196  10.8993  11.3209  16.5119  17.1357  25.3055
    26.5500

     occupation numbers 
     1.0000   1.0000   1.0000   1.0000   1.0000   1.0000   1.0000   1.0000
     1.0000   1.0000   1.0000   1.0165   0.5800   0.0000   0.0000   0.0000
     0.0000

          k = 0.0000 0.1667 0.1667 (   836 PWs)   bands (ev):

  -113.4067 -67.5915 -67.5914 -67.5879  -6.1883   5.0116   5.1215   5.6419
     5.7672   5.8722   7.7763   9.5155  10.7346  13.6777  23.0494  23.1576
    27.5280

     occupation numbers 
     1.0000   1.0000   1.0000   1.0000   1.0000   1.0000   1.0000   1.0000
     1.0000   1.0000   1.0000   1.0000   1.0007   0.0000   0.0000   0.0000
     0.0000

          k = 0.0000 0.1667 0.2500 (   837 PWs)   bands (ev):

  -113.4065 -67.5948 -67.5912 -67.5877  -5.9533   4.9293   5.1605   5.5595
     5.6866   5.8660   7.3168   9.4306  10.9249  14.4777  21.3806  23.2699
    27.4387

     occupation numbers 
     1.0000   1.0000   1.0000   1.0000   1.0000   1.0000   1.0000   1.0000
     1.0000   1.0000   1.0000   1.0000   1.0238   0.0000   0.0000   0.0000
     0.0000

          k = 0.0000 0.1667 0.3333 (   833 PWs)   bands (ev):

  -113.4063 -67.5981 -67.5909 -67.5874  -5.6981   4.6546   5.1775   5.5195
     5.5938   5.8773   6.9577   9.6288  11.1143  15.2376  19.7359  23.4581
    27.2875

     occupation numbers 
     1.0000   1.0000   1.0000   1.0000   1.0000   1.0000   1.0000   1.0000
     1.0000   1.0000   1.0000   1.0000   1.0783   0.0000   0.0000   0.0000
     0.0000

          k = 0.0000 0.1667 0.4167 (   836 PWs)   bands (ev):

  -113.4062 -67.6005 -67.5907 -67.5873  -5.4958   4.3294   5.1997   5.4661
     5.5263   5.8880   6.8456   9.8498  11.2531  16.0137  18.3186  23.6060
    27.1378

     occupation numbers 
     1.0000   1.0000   1.0000   1.0000   1.0000   1.0000   1.0000   1.0000
     1.0000   1.0000   1.0000   1.0000   0.8246   0.0000   0.0000   0.0000
     0.0000

          k = 0.0000 0.1667-0.5000 (   834 PWs)   bands (ev):

  -113.4061 -67.6013 -67.5907 -67.5872  -5.4180   4.1894   5.2107   5.4385
     5.5020   5.8922   6.8343   9.9430  11.3041  16.6415  17.4545  23.6630
    27.0751

     occupation numbers 
     1.0000   1.0000   1.0000   1.0000   1.0000   1.0000   1.0000   1.0000
     1.0000   1.0000   1.0000   1.0000   0.6433   0.0000   0.0000   0.0000
     0.0000

          k = 0.0000 0.2500 0.2500 (   822 PWs)   bands (ev):

  -113.4063 -67.5945 -67.5942 -67.5873  -5.7412   4.9144   5.2998   5.4988
     5.6822   5.8132   7.2977   8.7681  11.0441  15.1141  20.9905  22.1273
    27.6494

     occupation numbers 
     1.0000   1.0000   1.0000   1.0000   1.0000   1.0000   1.0000   1.0000
     1.0000   1.0000   1.0000   1.0000   1.0743   0.0000   0.0000   0.0000
     0.0000

          k = 0.0000 0.2500 0.3333 (   835 PWs)   bands (ev):

  -113.4061 -67.5979 -67.5942 -67.5871  -5.5133   4.8198   5.3497   5.5047
     5.6344   5.8067   7.0634   8.6470  11.1625  15.5541  19.7921  22.1121
    27.8187

     occupation numbers 
     1.0000   1.0000   1.0000   1.0000   1.0000   1.0000   1.0000   1.0000
     1.0000   1.0000   1.0000   1.0000   1.0378   0.0000   0.0000   0.0000
     0.0000

          k = 0.0000 0.2500 0.4167 (   837 PWs)   bands (ev):

  -113.4060 -67.6002 -67.5940 -67.5870  -5.3344   4.6815   5.3527   5.4837
     5.5842   5.8190   6.8938   8.7906  11.2487  15.7775  18.8786  22.2738
    27.9036

     occupation numbers 
     1.0000   1.0000   1.0000   1.0000   1.0000   1.0000   1.0000   1.0000
     1.0000   1.0000   1.0000   1.0000   0.8387   0.0000   0.0000   0.0000
     0.0000

          k = 0.0000 0.2500-0.5000 (   824 PWs)   bands (ev):

  -113.4059 -67.6009 -67.5939 -67.5869  -5.2660   4.6118   5.3549   5.4591
     5.5648   5.8250   6.8564   8.8752  11.2803  15.8336  18.5579  22.3502
    27.9247

     occupation numbers 
     1.0000   1.0000   1.0000   1.0000   1.0000   1.0000   1.0000   1.0000
     1.0000   1.0000   1.0000   1.0000   0.7310   0.0000   0.0000   0.0000
     0.0000

          k = 0.0000 0.3333 0.3333 (   840 PWs)   bands (ev):

  -113.4059 -67.5976 -67.5975 -67.5870  -5.3166   4.9132   5.4978   5.5644
     5.6596   5.7536   7.1039   7.9841  11.2095  15.4257  19.7935  21.4578
    28.4088

     occupation numbers 
     1.0000   1.0000   1.0000   1.0000   1.0000   1.0000   1.0000   1.0000
     1.0000   1.0000   1.0000   1.0000   0.9494   0.0000   0.0000   0.0000
     0.0000

          k = 0.0000 0.3333 0.4167 (   832 PWs)   bands (ev):

  -113.4058 -67.5999 -67.5972 -67.5867  -5.1639   4.9690   5.5123   5.6407
     5.6424   5.7520   6.9577   7.8707  11.2433  15.0579  19.6938  21.4244
    27.9019

     occupation numbers 
     1.0000   1.0000   1.0000   1.0000   1.0000   1.0000   1.0000   1.0000
     1.0000   1.0000   1.0000   1.0000   0.8559   0.0000   0.0000   0.0000
     0.0000

          k = 0.0000 0.3333-0.5000 (   834 PWs)   bands (ev):

  -113.4057 -67.6008 -67.5972 -67.5867  -5.1059   4.9949   5.5234   5.6195
     5.6287   5.7589   6.8819   7.9163  11.2555  14.8674  19.6407  21.4980
    27.6336

     occupation numbers 
     1.0000   1.0000   1.0000   1.0000   1.0000   1.0000   1.0000   1.0000
     1.0000   1.0000   1.0000   1.0000   0.8168   0.0000   0.0000   0.0000
     0.0000

          k = 0.0000 0.4167 0.4167 (   834 PWs)   bands (ev):

  -113.4056 -67.5997 -67.5997 -67.5866  -5.0326   5.1281   5.5863   5.6792
     5.7100   5.9060   6.9899   7.2897  11.2386  14.3458  20.3567  21.0402
    27.1563

     occupation numbers 
     1.0000   1.0000   1.0000   1.0000   1.0000   1.0000   1.0000   1.0000
     1.0000   1.0000   1.0000   1.0000   0.8703   0.0000   0.0000   0.0000
     0.0000

          k = 0.0000 0.4167-0.5000 (   844 PWs)   bands (ev):

  -113.4056 -67.6006 -67.5997 -67.5866  -4.9830   5.1829   5.6379   5.6763
     5.7112   5.9817   6.9054   7.2055  11.2367  14.0497  20.5250  21.0400
    26.8216

     occupation numbers 
     1.0000   1.0000   1.0000   1.0000   1.0000   1.0000   1.0000   1.0000
     1.0000   1.0000   1.0000   1.0000   0.8759   0.0000   0.0000   0.0000
     0.0000

          k = 0.0000-0.5000-0.5000 (   840 PWs)   bands (ev):

  -113.4055 -67.6006 -67.6006 -67.5865  -4.9366   5.2329   5.6939   5.6939
     5.7174   6.1552   6.9167   6.9167  11.2296  13.7220  20.8968  20.8968
    26.4481

     occupation numbers 
     1.0000   1.0000   1.0000   1.0000   1.0000   1.0000   1.0000   1.0000
     1.0000   1.0000   1.0000   1.0000   0.8964   0.0000   0.0000   0.0000
     0.0000

          k = 0.0833 0.0833 0.0833 (   826 PWs)   bands (ev):

  -113.4070 -67.5891 -67.5890 -67.5890  -6.4614   5.0289   5.0289   5.8217
     5.8751   5.8751   8.5588  10.1459  10.1459  12.4234  24.2714  24.2714
    26.7778

     occupation numbers 
     1.0000   1.0000   1.0000   1.0000   1.0000   1.0000   1.0000   1.0000
     1.0000   1.0000   1.0000   1.0000   1.0000   0.0000   0.0000   0.0000
     0.0000

          k = 0.0833 0.0833 0.1667 (   831 PWs)   bands (ev):

  -113.4068 -67.5915 -67.5890 -67.5888  -6.2936   5.0509   5.0513   5.7343
     5.7701   5.8826   7.9317  10.0184  10.3520  13.2426  22.9965  24.3883
    26.4871

     occupation numbers 
     1.0000   1.0000   1.0000   1.0000   1.0000   1.0000   1.0000   1.0000
     1.0000   1.0000   1.0000   1.0000   1.0000   0.0000   0.0000   0.0000
     0.0000

          k = 0.0833 0.0833 0.2500 (   826 PWs)   bands (ev):

  -113.4066 -67.5948 -67.5887 -67.5886  -6.0484   4.9231   5.0822   5.6361
     5.6512   5.8952   7.2603  10.1618  10.6307  14.0738  21.3754  24.5300
    26.4966

     occupation numbers 
     1.0000   1.0000   1.0000   1.0000   1.0000   1.0000   1.0000   1.0000
     1.0000   1.0000   1.0000   1.0000   1.0000   0.0000   0.0000   0.0000
     0.0000

          k = 0.0833 0.0833 0.3333 (   833 PWs)   bands (ev):

  -113.4064 -67.5982 -67.5884 -67.5884  -5.7813   4.5544   5.1160   5.5095
     5.5940   5.9083   6.9082  10.3886  10.9092  14.9153  19.7411  24.6248
    26.5309

     occupation numbers 
     1.0000   1.0000   1.0000   1.0000   1.0000   1.0000   1.0000   1.0000
     1.0000   1.0000   1.0000   1.0000   1.0191   0.0000   0.0000   0.0000
     0.0000

          k = 0.0833 0.0833 0.4167 (   836 PWs)   bands (ev):

  -113.4063 -67.6006 -67.5883 -67.5883  -5.5684   4.1577   5.1444   5.4183
     5.5425   5.9181   6.8315  10.5807  11.1148  15.8404  18.2389  24.6395
    26.5344

     occupation numbers 
     1.0000   1.0000   1.0000   1.0000   1.0000   1.0000   1.0000   1.0000
     1.0000   1.0000   1.0000   1.0000   1.0782   0.0000   0.0000   0.0000
     0.0000

          k = 0.0833 0.0833-0.5000 (   830 PWs)   bands (ev):

  -113.4062 -67.6015 -67.5882 -67.5882  -5.4862   3.9938   5.1567   5.3841
     5.5209   5.9217   6.8315  10.6557  11.1906  16.8639  17.0040  24.6287
    26.5296

     occupation numbers 
     1.0000   1.0000   1.0000   1.0000   1.0000   1.0000   1.0000   1.0000
     1.0000   1.0000   1.0000   1.0001   0.9909   0.0000   0.0000   0.0000
     0.0000

          k = 0.0833 0.1667 0.1667 (   829 PWs)   bands (ev):

  -113.4067 -67.5914 -67.5912 -67.5887  -6.1347   5.0562   5.1284   5.6504
     5.7433   5.8268   7.7350   9.6061  10.4170  13.9598  23.0218  23.2096
    26.1499

     occupation numbers 
     1.0000   1.0000   1.0000   1.0000   1.0000   1.0000   1.0000   1.0000
     1.0000   1.0000   1.0000   1.0000   1.0000   0.0000   0.0000   0.0000
     0.0000

          k = 0.0833 0.1667 0.2500 (   826 PWs)   bands (ev):

  -113.4065 -67.5946 -67.5910 -67.5884  -5.9037   4.9902   5.1631   5.5686
     5.6688   5.8272   7.3136   9.4768  10.6430  14.6779  21.4578  23.1976
    26.3211

     occupation numbers 
     1.0000   1.0000   1.0000   1.0000   1.0000   1.0000   1.0000   1.0000
     1.0000   1.0000   1.0000   1.0000   1.0001   0.0000   0.0000   0.0000
     0.0000

          k = 0.0833 0.1667 0.3333 (   830 PWs)   bands (ev):

  -113.4063 -67.5980 -67.5908 -67.5882  -5.6533   4.7267   5.1851   5.4744
     5.6387   5.8462   6.9807   9.6063  10.8817  15.3649  19.8351  23.2434
    26.5794

     occupation numbers 
     1.0000   1.0000   1.0000   1.0000   1.0000   1.0000   1.0000   1.0000
     1.0000   1.0000   1.0000   1.0000   1.0126   0.0000   0.0000   0.0000
     0.0000

          k = 0.0833 0.1667 0.4167 (   833 PWs)   bands (ev):

  -113.4061 -67.6004 -67.5906 -67.5881  -5.4551   4.4121   5.2166   5.3808
     5.6129   5.8624   6.8761   9.7772  11.0615  16.0671  18.4531  23.2370
    26.7821

     occupation numbers 
     1.0000   1.0000   1.0000   1.0000   1.0000   1.0000   1.0000   1.0000
     1.0000   1.0000   1.0000   1.0000   1.0798   0.0000   0.0000   0.0000
     0.0000

          k = 0.0833 0.1667-0.5000 (   832 PWs)   bands (ev):

  -113.4061 -67.6013 -67.5906 -67.5880  -5.3789   4.2765   5.2373   5.3374
     5.5980   5.8685   6.8666   9.8517  11.1286  16.5844  17.6859  23.2241
    26.8607

     occupation numbers 
     1.0000   1.0000   1.0000   1.0000   1.0000   1.0000   1.0000   1.0000
     1.0000   1.0000   1.0000   1.0000   1.0710   0.0000   0.0000   0.0000
     0.0000

          k = 0.0833 0.2500 0.2500 (   834 PWs)   bands (ev):

  -113.4063 -67.5945 -67.5943 -67.5883  -5.6944   4.9775   5.2924   5.5056
     5.6843   5.7688   7.2632   8.8834  10.7876  15.2193  21.1478  22.0176
    26.5883

     occupation numbers 
     1.0000   1.0000   1.0000   1.0000   1.0000   1.0000   1.0000   1.0000
     1.0000   1.0000   1.0000   1.0000   1.0022   0.0000   0.0000   0.0000
     0.0000

          k = 0.0833 0.2500 0.3333 (   839 PWs)   bands (ev):

  -113.4061 -67.5978 -67.5942 -67.5880  -5.4696   4.8829   5.3344   5.4567
     5.6860   5.7765   7.0683   8.7282  10.9477  15.5982  19.9243  21.9410
    26.9751

     occupation numbers 
     1.0000   1.0000   1.0000   1.0000   1.0000   1.0000   1.0000   1.0000
     1.0000   1.0000   1.0000   1.0000   1.0319   0.0000   0.0000   0.0000
     0.0000

          k = 0.0833 0.2500 0.4167 (   835 PWs)   bands (ev):

  -113.4059 -67.6001 -67.5939 -67.5879  -5.2933   4.7426   5.3307   5.3902
     5.6800   5.7996   6.9465   8.8155  11.0704  15.8005  18.9904  21.9807
    27.3374

     occupation numbers 
     1.0000   1.0000   1.0000   1.0000   1.0000   1.0000   1.0000   1.0000
     1.0000   1.0000   1.0000   1.0000   1.0817   0.0000   0.0000   0.0000
     0.0000

          k = 0.0833 0.2500-0.5000 (   832 PWs)   bands (ev):

  -113.4059 -67.6009 -67.5938 -67.5879  -5.2260   4.6715   5.3189   5.3700
     5.6694   5.8091   6.9247   8.8775  11.1168  15.8568  18.6585  21.9931
    27.5108

     occupation numbers 
     1.0000   1.0000   1.0000   1.0000   1.0000   1.0000   1.0000   1.0000
     1.0000   1.0000   1.0000   1.0000   1.0773   0.0000   0.0000   0.0000
     0.0000

          k = 0.0833 0.3333 0.3333 (   842 PWs)   bands (ev):

  -113.4059 -67.5975 -67.5975 -67.5878  -5.2741   4.9557   5.4517   5.4705
     5.7187   5.7722   7.1024   8.1354  11.0269  15.4621  19.8548  21.2710
    27.4878

     occupation numbers 
     1.0000   1.0000   1.0000   1.0000   1.0000   1.0000   1.0000   1.0000
     1.0000   1.0000   1.0000   1.0000   1.0673   0.0000   0.0000   0.0000
     0.0000

          k = 0.0833 0.3333 0.4167 (   830 PWs)   bands (ev):

  -113.4057 -67.5998 -67.5971 -67.5876  -5.1223   5.0005   5.3987   5.5047
     5.7251   5.8198   7.0416   7.9892  11.0893  15.1195  19.6723  21.1701
    27.8523

     occupation numbers 
     1.0000   1.0000   1.0000   1.0000   1.0000   1.0000   1.0000   1.0000
     1.0000   1.0000   1.0000   1.0000   1.0833   0.0000   0.0000   0.0000
     0.0000

          k = 0.0833 0.3333-0.5000 (   830 PWs)   bands (ev):

  -113.4057 -67.6007 -67.5971 -67.5876  -5.0647   5.0287   5.3461   5.5181
     5.7138   5.8330   7.0107   8.0077  11.1134  14.9407  19.5985  21.1895
    27.8441

     occupation numbers 
     1.0000   1.0000   1.0000   1.0000   1.0000   1.0000   1.0000   1.0000
     1.0000   1.0000   1.0000   1.0000   1.0787   0.0000   0.0000   0.0000
     0.0000

          k = 0.0833 0.4167 0.4167 (   838 PWs)   bands (ev):

  -113.4056 -67.5997 -67.5996 -67.5874  -4.9906   5.1538   5.4450   5.5166
     5.7237   5.9788   7.1292   7.4956  11.1053  14.4311  20.2003  20.8001
    27.3536

     occupation numbers 
     1.0000   1.0000   1.0000   1.0000   1.0000   1.0000   1.0000   1.0000
     1.0000   1.0000   1.0000   1.0000   1.0812   0.0000   0.0000   0.0000
     0.0000

          k = 0.0833 0.4167-0.5000 (   830 PWs)   bands (ev):

  -113.4055 -67.6005 -67.5995 -67.5873  -4.9408   5.2283   5.4294   5.5319
     5.7006   6.0433   7.1226   7.4046  11.1117  14.1408  20.3392  20.7675
    27.0810

     occupation numbers 
     1.0000   1.0000   1.0000   1.0000   1.0000   1.0000   1.0000   1.0000
     1.0000   1.0000   1.0000   1.0000   1.0793   0.0000   0.0000   0.0000
     0.0000

          k = 0.0833-0.5000-0.5000 (   840 PWs)   bands (ev):

  -113.4055 -67.6005 -67.6005 -67.5873  -4.8941   5.2939   5.5106   5.5106
     5.6493   6.1562   7.1877   7.1877  11.1111  13.8156  20.6380  20.6380
    26.7510

     occupation numbers 
     1.0000   1.0000   1.0000   1.0000   1.0000   1.0000   1.0000   1.0000
     1.0000   1.0000   1.0000   1.0000   1.0795   0.0000   0.0000   0.0000
     0.0000

          k = 0.1667 0.1667 0.1667 (   832 PWs)   bands (ev):

  -113.4065 -67.5912 -67.5911 -67.5911  -5.9834   5.1470   5.1470   5.6542
     5.7104   5.7104   7.5730   9.8503   9.8503  14.5163  22.9268  22.9268
    24.9786

     occupation numbers 
     1.0000   1.0000   1.0000   1.0000   1.0000   1.0000   1.0000   1.0000
     1.0000   1.0000   1.0000   1.0000   1.0000   0.0000   0.0000   0.0000
     0.0000

          k = 0.1667 0.1667 0.2500 (   829 PWs)   bands (ev):

  -113.4063 -67.5945 -67.5909 -67.5908  -5.7641   5.1286   5.1726   5.5664
     5.6562   5.7378   7.2751   9.4956  10.1813  15.0715  21.5928  22.7433
    25.1316

     occupation numbers 
     1.0000   1.0000   1.0000   1.0000   1.0000   1.0000   1.0000   1.0000
     1.0000   1.0000   1.0000   1.0000   1.0000   0.0000   0.0000   0.0000
     0.0000

          k = 0.1667 0.1667 0.3333 (   831 PWs)   bands (ev):

  -113.4061 -67.5978 -67.5907 -67.5906  -5.5275   4.9036   5.1980   5.4359
     5.7000   5.7748   7.0284   9.4137  10.5154  15.5848  20.0573  22.4877
    25.7861

     occupation numbers 
     1.0000   1.0000   1.0000   1.0000   1.0000   1.0000   1.0000   1.0000
     1.0000   1.0000   1.0000   1.0000   1.0000   0.0000   0.0000   0.0000
     0.0000

          k = 0.1667 0.1667 0.4167 (   838 PWs)   bands (ev):

  -113.4060 -67.6002 -67.5905 -67.5905  -5.3411   4.6306   5.2166   5.3471
     5.7023   5.8032   6.9597   9.4535  10.7655  16.0784  18.8044  22.2504
    26.4197

     occupation numbers 
     1.0000   1.0000   1.0000   1.0000   1.0000   1.0000   1.0000   1.0000
     1.0000   1.0000   1.0000   1.0000   1.0013   0.0000   0.0000   0.0000
     0.0000

          k = 0.1667 0.1667-0.5000 (   828 PWs)   bands (ev):

  -113.4059 -67.6010 -67.5904 -67.5903  -5.2697   4.5114   5.2233   5.3159
     5.6934   5.8141   6.9612   9.4837  10.8588  16.3682  18.2353  22.1526
    26.6933

     occupation numbers 
     1.0000   1.0000   1.0000   1.0000   1.0000   1.0000   1.0000   1.0000
     1.0000   1.0000   1.0000   1.0000   1.0086   0.0000   0.0000   0.0000
     0.0000

          k = 0.1667 0.2500 0.2500 (   837 PWs)   bands (ev):

  -113.4061 -67.5943 -67.5942 -67.5906  -5.5627   5.1218   5.2610   5.5234
     5.6736   5.7099   7.1662   9.1918  10.2064  15.4247  21.4403  21.6920
    25.0408

     occupation numbers 
     1.0000   1.0000   1.0000   1.0000   1.0000   1.0000   1.0000   1.0000
     1.0000   1.0000   1.0000   1.0000   1.0000   0.0000   0.0000   0.0000
     0.0000

          k = 0.1667 0.2500 0.3333 (   837 PWs)   bands (ev):

  -113.4059 -67.5976 -67.5940 -67.5904  -5.3469   5.0236   5.2382   5.4611
     5.7201   5.7573   7.0703   8.9452  10.4577  15.6776  20.1786  21.4197
    25.6467

     occupation numbers 
     1.0000   1.0000   1.0000   1.0000   1.0000   1.0000   1.0000   1.0000
     1.0000   1.0000   1.0000   1.0000   1.0000   0.0000   0.0000   0.0000
     0.0000

          k = 0.1667 0.2500 0.4167 (   824 PWs)   bands (ev):

  -113.4058 -67.5998 -67.5937 -67.5901  -5.1781   4.8791   5.1687   5.4352
     5.7475   5.7702   7.0885   8.8682  10.6770  15.8344  19.2164  21.1699
    26.4060

     occupation numbers 
     1.0000   1.0000   1.0000   1.0000   1.0000   1.0000   1.0000   1.0000
     1.0000   1.0000   1.0000   1.0000   1.0001   0.0000   0.0000   0.0000
     0.0000

          k = 0.1667 0.2500-0.5000 (   826 PWs)   bands (ev):

  -113.4057 -67.6007 -67.5936 -67.5901  -5.1138   4.8056   5.1395   5.4314
     5.7336   5.7861   7.1208   8.8595  10.7626  15.8902  18.8637  21.0608
    26.7915

     occupation numbers 
     1.0000   1.0000   1.0000   1.0000   1.0000   1.0000   1.0000   1.0000
     1.0000   1.0000   1.0000   1.0000   1.0013   0.0000   0.0000   0.0000
     0.0000

          k = 0.1667 0.3333 0.3333 (   838 PWs)   bands (ev):

  -113.4057 -67.5973 -67.5973 -67.5902  -5.1548   5.0103   5.2730   5.4636
     5.7667   5.7949   7.1371   8.5296  10.5803  15.5535  19.8997  20.7415
    26.0075

     occupation numbers 
     1.0000   1.0000   1.0000   1.0000   1.0000   1.0000   1.0000   1.0000
     1.0000   1.0000   1.0000   1.0000   1.0000   0.0000   0.0000   0.0000
     0.0000

          k = 0.1667 0.3333 0.4167 (   829 PWs)   bands (ev):

  -113.4056 -67.5996 -67.5970 -67.5899  -5.0056   5.0029   5.1922   5.4733
     5.7196   5.8764   7.2752   8.3213  10.7147  15.2904  19.5270  20.4600
    26.6362

     occupation numbers 
     1.0000   1.0000   1.0000   1.0000   1.0000   1.0000   1.0000   1.0000
     1.0000   1.0000   1.0000   1.0000   1.0004   0.0000   0.0000   0.0000
     0.0000

          k = 0.1667 0.3333-0.5000 (   836 PWs)   bands (ev):

  -113.4055 -67.6005 -67.5970 -67.5899  -4.9491   5.0327   5.1064   5.4881
     5.6846   5.9021   7.3574   8.2645  10.7716  15.1486  19.4141  20.3490
    27.0514

     occupation numbers 
     1.0000   1.0000   1.0000   1.0000   1.0000   1.0000   1.0000   1.0000
     1.0000   1.0000   1.0000   1.0000   1.0015   0.0000   0.0000   0.0000
     0.0000

          k = 0.1667 0.4167 0.4167 (   831 PWs)   bands (ev):

  -113.4054 -67.5995 -67.5994 -67.5897  -4.8725   5.0577   5.2136   5.4589
     5.6208   6.0291   7.5063   7.9961  10.7746  14.6856  19.7042  20.1358
    27.0219

     occupation numbers 
     1.0000   1.0000   1.0000   1.0000   1.0000   1.0000   1.0000   1.0000
     1.0000   1.0000   1.0000   1.0000   1.0016   0.0000   0.0000   0.0000
     0.0000

          k = 0.1667 0.4167-0.5000 (   836 PWs)   bands (ev):

  -113.4054 -67.6004 -67.5994 -67.5897  -4.8222   5.1369   5.1498   5.4727
     5.5508   6.0849   7.6325   7.8896  10.8019  14.4170  19.7916  20.0175
    27.3424

     occupation numbers 
     1.0000   1.0000   1.0000   1.0000   1.0000   1.0000   1.0000   1.0000
     1.0000   1.0000   1.0000   1.0000   1.0029   0.0000   0.0000   0.0000
     0.0000

          k = 0.1667-0.5000-0.5000 (   844 PWs)   bands (ev):

  -113.4053 -67.6004 -67.6004 -67.5896  -4.7743   5.1842   5.1842   5.4525
     5.4619   6.1589   7.7695   7.7695  10.8158  14.1041  19.9272  19.9272
    27.4796

     occupation numbers 
     1.0000   1.0000   1.0000   1.0000   1.0000   1.0000   1.0000   1.0000
     1.0000   1.0000   1.0000   1.0000   1.0039   0.0000   0.0000   0.0000
     0.0000

          k = 0.2500 0.2500 0.2500 (   838 PWs)   bands (ev):

  -113.4059 -67.5941 -67.5939 -67.5939  -5.3732   5.1890   5.1890   5.5981
     5.5981   5.7657   7.0638   9.6087   9.6087  15.5979  21.1873  21.1873
    24.3780

     occupation numbers 
     1.0000   1.0000   1.0000   1.0000   1.0000   1.0000   1.0000   1.0000
     1.0000   1.0000   1.0000   1.0000   1.0000   0.0000   0.0000   0.0000
     0.0000

          k = 0.2500 0.2500 0.3333 (   836 PWs)   bands (ev):

  -113.4057 -67.5972 -67.5937 -67.5937  -5.1708   5.0932   5.1029   5.5669
     5.7096   5.7747   7.1097   9.1592  10.0350  15.7121  20.2103  20.6155
    24.8888

     occupation numbers 
     1.0000   1.0000   1.0000   1.0000   1.0000   1.0000   1.0000   1.0000
     1.0000   1.0000   1.0000   1.0000   1.0000   0.0000   0.0000   0.0000
     0.0000

          k = 0.2500 0.2500 0.4167 (   830 PWs)   bands (ev):

  -113.4056 -67.5996 -67.5935 -67.5934  -5.0132   4.9668   5.0171   5.5597
     5.7090   5.7876   7.3154   8.8755  10.3615  15.7821  19.3408  20.1548
    25.7173

     occupation numbers 
     1.0000   1.0000   1.0000   1.0000   1.0000   1.0000   1.0000   1.0000
     1.0000   1.0000   1.0000   1.0000   1.0000   0.0000   0.0000   0.0000
     0.0000

          k = 0.2500 0.2500-0.5000 (   836 PWs)   bands (ev):

  -113.4055 -67.6006 -67.5934 -67.5934  -4.9532   4.9009   4.9890   5.5590
     5.6767   5.8120   7.4359   8.7681  10.4855  15.8085  19.0095  19.9770
    26.1485

     occupation numbers 
     1.0000   1.0000   1.0000   1.0000   1.0000   1.0000   1.0000   1.0000
     1.0000   1.0000   1.0000   1.0000   1.0000   0.0000   0.0000   0.0000
     0.0000

          k = 0.2500 0.3333 0.3333 (   833 PWs)   bands (ev):

  -113.4055 -67.5970 -67.5969 -67.5934  -4.9835   4.9716   5.0631   5.6236
     5.6922   5.8127   7.3099   9.0541  10.0619  15.6543  19.6698  19.9757
    24.9098

     occupation numbers 
     1.0000   1.0000   1.0000   1.0000   1.0000   1.0000   1.0000   1.0000
     1.0000   1.0000   1.0000   1.0000   1.0000   0.0000   0.0000   0.0000
     0.0000

          k = 0.2500 0.3333 0.4167 (   837 PWs)   bands (ev):

  -113.4054 -67.5994 -67.5968 -67.5933  -4.8382   4.8997   4.9767   5.5502
     5.6514   5.9148   7.6476   8.7794  10.3000  15.5181  19.1501  19.4908
    25.3255

     occupation numbers 
     1.0000   1.0000   1.0000   1.0000   1.0000   1.0000   1.0000   1.0000
     1.0000   1.0000   1.0000   1.0000   1.0000   0.0000   0.0000   0.0000
     0.0000

          k = 0.2500 0.3333-0.5000 (   840 PWs)   bands (ev):

  -113.4053 -67.6003 -67.5967 -67.5932  -4.7831   4.8936   4.9145   5.4977
     5.6537   5.9501   7.8537   8.6189  10.4097  15.4373  19.0286  19.2369
    25.5769

     occupation numbers 
     1.0000   1.0000   1.0000   1.0000   1.0000   1.0000   1.0000   1.0000
     1.0000   1.0000   1.0000   1.0000   1.0000   0.0000   0.0000   0.0000
     0.0000

          k = 0.2500 0.4167 0.4167 (   837 PWs)   bands (ev):

  -113.4052 -67.5992 -67.5992 -67.5930  -4.7029   4.8570   4.9372   5.3613
     5.6785   6.0528   8.0326   8.6302  10.3885  15.0975  18.9101  19.2044
    25.1619

     occupation numbers 
     1.0000   1.0000   1.0000   1.0000   1.0000   1.0000   1.0000   1.0000
     1.0000   1.0000   1.0000   1.0000   1.0000   0.0000   0.0000   0.0000
     0.0000

          k = 0.2500 0.4167-0.5000 (   840 PWs)   bands (ev):

  -113.4052 -67.6001 -67.5991 -67.5930  -4.6517   4.8697   4.8972   5.2754
     5.6861   6.1039   8.2723   8.5024  10.4447  14.8813  18.9733  18.9758
    25.1254

     occupation numbers 
     1.0000   1.0000   1.0000   1.0000   1.0000   1.0000   1.0000   1.0000
     1.0000   1.0000   1.0000   1.0000   1.0000   0.0000   0.0000   0.0000
     0.0000

          k = 0.2500-0.5000-0.5000 (   856 PWs)   bands (ev):

  -113.4051 -67.6002 -67.6002 -67.5930  -4.6020   4.8876   4.8876   5.1579
     5.6948   6.1628   8.4623   8.4623  10.4714  14.6070  18.9394  18.9394
    24.9460

     occupation numbers 
     1.0000   1.0000   1.0000   1.0000   1.0000   1.0000   1.0000   1.0000
     1.0000   1.0000   1.0000   1.0000   1.0000   0.0000   0.0000   0.0000
     0.0000

          k = 0.3333 0.3333 0.3333 (   838 PWs)   bands (ev):

  -113.4053 -67.5967 -67.5967 -67.5967  -4.8015   4.8901   4.8901   5.4879
     5.8268   5.8268   7.6692   9.5950   9.5950  15.7045  19.1585  19.1585
    24.3804

     occupation numbers 
     1.0000   1.0000   1.0000   1.0000   1.0000   1.0000   1.0000   1.0000
     1.0000   1.0000   1.0000   1.0000   1.0000   0.0000   0.0000   0.0000
     0.0000

          k = 0.3333 0.3333 0.4167 (   837 PWs)   bands (ev):

  -113.4052 -67.5991 -67.5965 -67.5965  -4.6603   4.7787   4.8161   5.2945
     5.8363   5.9642   8.1264   9.1970  10.0203  15.6745  18.5195  18.6926
    24.2057

     occupation numbers 
     1.0000   1.0000   1.0000   1.0000   1.0000   1.0000   1.0000   1.0000
     1.0000   1.0000   1.0000   1.0000   1.0000   0.0000   0.0000   0.0000
     0.0000

          k = 0.3333 0.3333-0.5000 (   828 PWs)   bands (ev):

  -113.4051 -67.6000 -67.5963 -67.5963  -4.6067   4.7406   4.7840   5.2190
     5.8397   6.0121   8.4269   8.9461  10.1858  15.6392  18.2746  18.5213
    24.1702

     occupation numbers 
     1.0000   1.0000   1.0000   1.0000   1.0000   1.0000   1.0000   1.0000
     1.0000   1.0000   1.0000   1.0000   1.0000   0.0000   0.0000   0.0000
     0.0000

          k = 0.3333 0.4167 0.4167 (   833 PWs)   bands (ev):

  -113.4050 -67.5989 -67.5989 -67.5962  -4.5222   4.6929   4.7263   5.0559
     5.9055   6.0661   8.6181   9.2785  10.0549  15.6100  18.0396  18.2294
    23.3884

     occupation numbers 
     1.0000   1.0000   1.0000   1.0000   1.0000   1.0000   1.0000   1.0000
     1.0000   1.0000   1.0000   1.0000   1.0000   0.0000   0.0000   0.0000
     0.0000

          k = 0.3333 0.4167-0.5000 (   844 PWs)   bands (ev):

  -113.4050 -67.5999 -67.5989 -67.5962  -4.4699   4.6680   4.6953   4.9568
     5.9166   6.1161   8.9397   9.1205  10.1554  15.5065  17.9051  18.0834
    23.0752

     occupation numbers 
     1.0000   1.0000   1.0000   1.0000   1.0000   1.0000   1.0000   1.0000
     1.0000   1.0000   1.0000   1.0000   1.0000   0.0000   0.0000   0.0000
     0.0000

          k = 0.3333-0.5000-0.5000 (   840 PWs)   bands (ev):

  -113.4049 -67.5998 -67.5998 -67.5961  -4.4180   4.6644   4.6644   4.8341
     5.9314   6.1666   9.1594   9.1594  10.1843  15.3369  17.9094  17.9094
    22.6385

     occupation numbers 
     1.0000   1.0000   1.0000   1.0000   1.0000   1.0000   1.0000   1.0000
     1.0000   1.0000   1.0000   1.0000   1.0000   0.0000   0.0000   0.0000
     0.0000

          k = 0.4167 0.4167 0.4167 (   852 PWs)   bands (ev):

  -113.4049 -67.5988 -67.5988 -67.5988  -4.3818   4.5957   4.5957   4.7995
     6.0734   6.0734   9.1528   9.7975   9.7975  16.0185  17.4663  17.4663
    22.0155

     occupation numbers 
     1.0000   1.0000   1.0000   1.0000   1.0000   1.0000   1.0000   1.0000
     1.0000   1.0000   1.0000   1.0000   1.0000   0.0000   0.0000   0.0000
     0.0000

          k = 0.4167 0.4167-0.5000 (   852 PWs)   bands (ev):

  -113.4048 -67.5997 -67.5988 -67.5987  -4.3284   4.5516   4.5698   4.6939
     6.0758   6.1347   9.4928   9.5847  10.0041  16.1027  17.1705  17.3757
    21.4545

     occupation numbers 
     1.0000   1.0000   1.0000   1.0000   1.0000   1.0000   1.0000   1.0000
     1.0000   1.0000   1.0000   1.0000   1.0000   0.0000   0.0000   0.0000
     0.0000

          k = 0.4167-0.5000-0.5000 (   852 PWs)   bands (ev):

  -113.4048 -67.5996 -67.5996 -67.5988  -4.2747   4.5274   4.5274   4.5787
     6.1061   6.1695   9.7195   9.7195  10.0045  16.2269  17.1002  17.1002
    20.7545

     occupation numbers 
     1.0000   1.0000   1.0000   1.0000   1.0000   1.0000   1.0000   1.0000
     1.0000   1.0000   1.0000   1.0000   1.0000   0.0000   0.0000   0.0000
     0.0000

          k =-0.5000-0.5000-0.5000 (   840 PWs)   bands (ev):

  -113.4047 -67.5994 -67.5994 -67.5994  -4.2201   4.4813   4.4813   4.4813
     6.1705   6.1705   9.9444   9.9444   9.9444  16.7843  16.7843  16.7843
    19.8580

     occupation numbers 
     1.0000   1.0000   1.0000   1.0000   1.0000   1.0000   1.0000   1.0000
     1.0000   1.0000   1.0000   1.0000   1.0000   0.0000   0.0000   0.0000
     0.0000

     the Fermi energy is    11.3702 ev

!    total energy              =    -503.17640349 Ry
     estimated scf accuracy    <          3.5E-09 Ry
     smearing contrib. (-TS)   =       0.00113810 Ry
     internal energy E=F+TS    =    -503.17754158 Ry

     The total energy is F=E-TS. E is the sum of the following terms:
     one-electron contribution =    -362.28433857 Ry
     hartree contribution      =     193.78541941 Ry
     xc contribution           =     -49.63301840 Ry
     ewald contribution        =    -275.51249364 Ry
     one-center paw contrib.   =      -9.53311038 Ry
      -> PAW hartree energy AE =      25.24099246 Ry
      -> PAW hartree energy PS =     -25.12946992 Ry
      -> PAW xc energy AE      =     -16.53648384 Ry
      -> PAW xc energy PS      =       6.89185091 Ry
      -> total E_H with PAW    =     193.89694196 Ry
      -> total E_XC with PAW   =     -59.27765133 Ry

     convergence has been achieved in   9 iterations

     Forces acting on atoms (cartesian axes, Ry/au):

     atom    1 type  2   force =     0.00000000    0.00000000    0.00000000
     atom    2 type  1   force =     0.00000000    0.00000000    0.00000000
     The non-local contrib.  to forces
     atom    1 type  2   force =     0.00000000    0.00000000    0.00000000
     atom    2 type  1   force =     0.00000000    0.00000000    0.00000000
     The ionic contribution  to forces
     atom    1 type  2   force =    -0.00000000   -0.00000000   -0.00000000
     atom    2 type  1   force =     0.00000000    0.00000000    0.00000000
     The local contribution  to forces
     atom    1 type  2   force =     0.00000000    0.00000000    0.00000000
     atom    2 type  1   force =     0.00000000    0.00000000    0.00000000
     The core correction contribution to forces
     atom    1 type  2   force =     0.00000000    0.00000000    0.00000000
     atom    2 type  1   force =     0.00000000    0.00000000    0.00000000
     The Hubbard contrib.    to forces
     atom    1 type  2   force =     0.00000000    0.00000000    0.00000000
     atom    2 type  1   force =     0.00000000    0.00000000    0.00000000
     The SCF correction term to forces
     atom    1 type  2   force =     0.00000000   -0.00000000    0.00000000
     atom    2 type  1   force =     0.00000000    0.00000000    0.00000000

     Total force =     0.000000     Total SCF correction =     0.000000


     Computing stress (Cartesian axis) and pressure

          total   stress  (Ry/bohr**3)                   (kbar)     P=      -91.42
  -0.00062146   0.00000000   0.00000000          -91.42        0.00        0.00
   0.00000000  -0.00062146   0.00000000            0.00      -91.42        0.00
   0.00000000   0.00000000  -0.00062146            0.00        0.00      -91.42

     kinetic stress (kbar)  39897.30      0.00      0.00
                                0.00  39897.30      0.00
                                0.00      0.00  39897.30

     local   stress (kbar)   6285.61     -0.00     -0.00
                               -0.00   6285.61     -0.00
                               -0.00     -0.00   6285.61

     nonloc. stress (kbar)   -905.76      0.00      0.00
                                0.00   -905.76      0.00
                                0.00      0.00   -905.76

     hartree stress (kbar)  68026.00      0.00      0.00
                                0.00  68026.00     -0.00
                                0.00     -0.00  68026.00

     exc-cor stress (kbar) -16232.16      0.00      0.00
                                0.00 -16232.16     -0.00
                                0.00     -0.00 -16232.16

     corecor stress (kbar)   -447.12     -0.00     -0.00
                               -0.00   -447.12     -0.00
                               -0.00     -0.00   -447.12

     ewald   stress (kbar) -96715.29     -0.00      0.00
                               -0.00 -96715.29      0.00
                                0.00      0.00 -96715.29

     hubbard stress (kbar)      0.00      0.00      0.00
                                0.00      0.00      0.00
                                0.00      0.00      0.00

     DFT-D   stress (kbar)      0.00      0.00      0.00
                                0.00      0.00      0.00
                                0.00      0.00      0.00

     XDM     stress (kbar)      0.00      0.00      0.00
                                0.00      0.00      0.00
                                0.00      0.00      0.00

     dft-nl  stress (kbar)      0.00      0.00      0.00
                                0.00      0.00      0.00
                                0.00      0.00      0.00

     TS-vdW  stress (kbar)      0.00      0.00      0.00
                                0.00      0.00      0.00
                                0.00      0.00      0.00

     MDB     stress (kbar)      0.00      0.00      0.00
                                0.00      0.00      0.00
                                0.00      0.00      0.00

     3D-RISM stress (kbar)      0.00      0.00      0.00
                                0.00      0.00      0.00
                                0.00      0.00      0.00


     Writing all to output data dir ./temp_cubic/aiida.save/ :
     XML data file, charge density, pseudopotentials, collected wavefunctions

     init_run     :    117.07s CPU      5.13s WALL (       1 calls)
     electrons    :   3871.68s CPU    163.26s WALL (       1 calls)
     forces       :     14.63s CPU      0.64s WALL (       1 calls)
     stress       :     15.82s CPU      0.91s WALL (       1 calls)

     Called by init_run:
     wfcinit      :    111.85s CPU      4.69s WALL (       1 calls)
     wfcinit:atom :      1.74s CPU      0.09s WALL (      84 calls)
     wfcinit:wfcr :    105.63s CPU      4.49s WALL (      84 calls)
     potinit      :      2.48s CPU      0.12s WALL (       1 calls)
     hinit0       :      1.55s CPU      0.25s WALL (       1 calls)

     Called by electrons:
     c_bands      :   3339.32s CPU    140.44s WALL (       9 calls)
     sum_band     :    517.59s CPU     22.00s WALL (       9 calls)
     v_of_rho     :      2.60s CPU      0.12s WALL (      10 calls)
     v_h          :      0.71s CPU      0.03s WALL (      10 calls)
     v_xc         :      2.35s CPU      0.10s WALL (      12 calls)
     newd         :      6.59s CPU      0.47s WALL (      10 calls)
     PAW_pot      :      7.34s CPU      0.30s WALL (      10 calls)
     mix_rho      :      0.02s CPU      0.02s WALL (       9 calls)

     Called by c_bands:
     init_us_2    :     36.86s CPU      1.63s WALL (    1764 calls)
     cegterg      :   3236.18s CPU    136.19s WALL (     756 calls)

     Called by sum_band:
     sum_band:wei :      0.46s CPU      0.02s WALL (       9 calls)
     sum_band:loo :    513.66s CPU     21.51s WALL (       9 calls)
     sum_band:buf :      0.35s CPU      0.02s WALL (     756 calls)
     sum_band:ini :     13.82s CPU      0.64s WALL (     756 calls)
     sum_band:cal :     10.39s CPU      0.46s WALL (     756 calls)
     sum_band:bec :     28.12s CPU      1.10s WALL (     756 calls)
     addusdens    :      2.98s CPU      0.42s WALL (       9 calls)
                                        0.00s GPU  (       9 calls)
     addusd:skk   :      0.00s CPU      0.00s WALL (      18 calls)
                                        0.00s GPU  (      18 calls)

     Called by *egterg:
     cdiaghg      :     15.18s CPU      0.69s WALL (    2299 calls)
     cegterg:over :     35.31s CPU      1.51s WALL (    1543 calls)
     cegterg:upda :     54.99s CPU      2.31s WALL (    1543 calls)
     cegterg:last :     62.07s CPU      2.10s WALL (    1405 calls)
     h_psi        :   2970.32s CPU    125.19s WALL (    2383 calls)
     s_psi        :     26.93s CPU      1.23s WALL (    2383 calls)
     g_psi        :     45.67s CPU      2.11s WALL (    1543 calls)

     Called by h_psi:
     h_psi:calbec :     24.08s CPU      1.15s WALL (    2383 calls)
     vloc_psi     :   2836.25s CPU    119.36s WALL (    2383 calls)
     add_vuspsi   :     27.94s CPU      1.23s WALL (    2383 calls)

     General routines
     calbec       :     39.59s CPU      1.83s WALL (    3559 calls)
     fft          :      1.71s CPU      0.07s WALL (     153 calls)
     ffts         :      0.00s CPU      0.00s WALL (      19 calls)
     fftw         :    161.86s CPU      7.03s WALL (   74292 calls)
     interpolate  :      0.23s CPU      0.01s WALL (      10 calls)

     Parallel routines

     PAW routines
     PAW_pot      :      7.34s CPU      0.30s WALL (      10 calls)
     PAW_symme    :      0.00s CPU      0.00s WALL (      19 calls)

     PWSCF        :      1h 7m CPU   2m52.98s WALL


   This run was terminated on:  22:47:26   7Jun2024            

=------------------------------------------------------------------------------=
   JOB DONE.
=------------------------------------------------------------------------------=
