
     Program PWSCF v.7.3.1 starts on 14Jun2024 at 20:43:59 

     This program is part of the open-source Quantum ESPRESSO suite
     for quantum simulation of materials; please cite
         "P. Giannozzi et al., J. Phys.:Condens. Matter 21 395502 (2009);
         "P. Giannozzi et al., J. Phys.:Condens. Matter 29 465901 (2017);
         "P. Giannozzi et al., J. Chem. Phys. 152 154105 (2020);
          URL http://www.quantum-espresso.org", 
     in publications or presentations arising from this work. More details at
     http://www.quantum-espresso.org/quote

     Parallel version (MPI & OpenMP), running on      24 processor cores
     Number of MPI processes:                 1
     Threads/MPI process:                    24

     MPI processes distributed on     1 nodes
     5446 MiB available memory on the printing compute node when the environment starts

     Waiting for input...
     Reading input from standard input

     Current dimensions of program PWSCF are:
     Max number of different atomic species (ntypx) = 10
     Max number of k-points (npk) =  40000
     Max angular momentum in pseudopotentials (lmaxx) =  4
     file O.pbe-n-kjpaw_psl.0.1.UPF: wavefunction(s)  2P renormalized
     Message from routine setup:
     using ibrav=0 with symmetry is DISCOURAGED, use correct ibrav instead

     Subspace diagonalization in iterative solution of the eigenvalue problem:
     a serial algorithm will be used


     G-vector sticks info
     --------------------
     sticks:   dense  smooth     PW     G-vecs:    dense   smooth      PW
     Sum         829     421    137               177743    63081   11257

     Using Slab Decomposition



     bravais-lattice index     =            0
     lattice parameter (alat)  =       5.0869  a.u.
     unit-cell volume          =    1316.2915 (a.u.)^3
     number of atoms/cell      =            3
     number of atomic types    =            3
     number of electrons       =        27.00
     number of Kohn-Sham states=           18
     kinetic-energy cutoff     =      50.0000  Ry
     charge density cutoff     =     400.0000  Ry
     scf convergence threshold =      1.0E-08
     mixing beta               =       0.4000
     number of iterations used =            8  plain     mixing
     Exchange-correlation= PBE
                           (   1   4   3   4   0   0   0)

     celldm(1)=   5.086871  celldm(2)=   0.000000  celldm(3)=   0.000000
     celldm(4)=   0.000000  celldm(5)=   0.000000  celldm(6)=   0.000000

     crystal axes: (cart. coord. in units of alat)
               a(1) = (   1.000000   0.000000   0.000000 )  
               a(2) = (   0.000000   1.000000   0.000000 )  
               a(3) = (   0.000000   0.000000  10.000000 )  

     reciprocal axes: (cart. coord. in units 2 pi/alat)
               b(1) = (  1.000000  0.000000  0.000000 )  
               b(2) = (  0.000000  1.000000  0.000000 )  
               b(3) = (  0.000000  0.000000  0.100000 )  


     PseudoPot. # 1 for O  read from file:
     ../SSSP_1.3.0_PBE_efficiency/O.pbe-n-kjpaw_psl.0.1.UPF
     MD5 check sum: 0234752ac141de4415c5fc33072bef88
     Pseudo is Projector augmented-wave + core cor, Zval =  6.0
     Generated using "atomic" code by A. Dal Corso  v.5.0.99 svn rev. 10869
     Shape of augmentation charge: BESSEL
     Using radial grid of 1095 points,  4 beta functions with: 
                l(1) =   0
                l(2) =   0
                l(3) =   1
                l(4) =   1
     Q(r) pseudized with 0 coefficients 


     PseudoPot. # 2 for Zn read from file:
     ../SSSP_1.3.0_PBE_efficiency/Zn_pbe_v1.uspp.F.UPF
     MD5 check sum: df62231357ef9e81f77b2b3087fa5675
     Pseudo is Ultrasoft, Zval = 20.0
     Generated by new atomic code, or converted to UPF format
     Using radial grid of  943 points,  6 beta functions with: 
                l(1) =   0
                l(2) =   0
                l(3) =   1
                l(4) =   1
                l(5) =   2
                l(6) =   2
     Q(r) pseudized with  8 coefficients,  rinner =    1.100   1.100   1.100
                                                       1.100   1.100

     PseudoPot. # 3 for H  read from file:
     ../SSSP_1.3.0_PBE_efficiency/H.pbe-rrkjus_psl.1.0.0.UPF
     MD5 check sum: f52b6d4d1c606e5624b1dc7b2218f220
     Pseudo is Ultrasoft, Zval =  1.0
     Generated using "atomic" code by A. Dal Corso  v.5.1
     Using radial grid of  929 points,  2 beta functions with: 
                l(1) =   0
                l(2) =   0
     Q(r) pseudized with 0 coefficients 


     atomic species   valence    mass     pseudopotential
     O                 6.00    15.99940     O ( 1.00)
     Zn               20.00    65.38000     Zn( 1.00)
     H                 1.00     1.00794     H ( 1.00)

      8 Sym. Ops. (no inversion) found


                                    s                        frac. trans.

      isym =  1     identity                                     

 cryst.   s( 1) = (     1          0          0      )
                  (     0          1          0      )
                  (     0          0          1      )

 cart.    s( 1) = (  1.0000000  0.0000000  0.0000000 )
                  (  0.0000000  1.0000000  0.0000000 )
                  (  0.0000000  0.0000000  1.0000000 )


      isym =  2     180 deg rotation - cart. axis [0,0,1]        

 cryst.   s( 2) = (    -1          0          0      )
                  (     0         -1          0      )
                  (     0          0          1      )

 cart.    s( 2) = ( -1.0000000  0.0000000  0.0000000 )
                  (  0.0000000 -1.0000000  0.0000000 )
                  (  0.0000000  0.0000000  1.0000000 )


      isym =  3      90 deg rotation - cart. axis [0,0,-1]       

 cryst.   s( 3) = (     0         -1          0      )
                  (     1          0          0      )
                  (     0          0          1      )

 cart.    s( 3) = (  0.0000000  1.0000000  0.0000000 )
                  ( -1.0000000  0.0000000  0.0000000 )
                  (  0.0000000  0.0000000  1.0000000 )


      isym =  4      90 deg rotation - cart. axis [0,0,1]        

 cryst.   s( 4) = (     0          1          0      )
                  (    -1          0          0      )
                  (     0          0          1      )

 cart.    s( 4) = (  0.0000000 -1.0000000  0.0000000 )
                  (  1.0000000  0.0000000  0.0000000 )
                  (  0.0000000  0.0000000  1.0000000 )


      isym =  5     inv. 180 deg rotation - cart. axis [0,1,0]   

 cryst.   s( 5) = (     1          0          0      )
                  (     0         -1          0      )
                  (     0          0          1      )

 cart.    s( 5) = (  1.0000000  0.0000000  0.0000000 )
                  (  0.0000000 -1.0000000  0.0000000 )
                  (  0.0000000  0.0000000  1.0000000 )


      isym =  6     inv. 180 deg rotation - cart. axis [1,0,0]   

 cryst.   s( 6) = (    -1          0          0      )
                  (     0          1          0      )
                  (     0          0          1      )

 cart.    s( 6) = ( -1.0000000  0.0000000  0.0000000 )
                  (  0.0000000  1.0000000  0.0000000 )
                  (  0.0000000  0.0000000  1.0000000 )


      isym =  7     inv. 180 deg rotation - cart. axis [1,1,0]   

 cryst.   s( 7) = (     0         -1          0      )
                  (    -1          0          0      )
                  (     0          0          1      )

 cart.    s( 7) = (  0.0000000 -1.0000000  0.0000000 )
                  ( -1.0000000  0.0000000  0.0000000 )
                  (  0.0000000  0.0000000  1.0000000 )


      isym =  8     inv. 180 deg rotation - cart. axis [1,-1,0]  

 cryst.   s( 8) = (     0          1          0      )
                  (     1          0          0      )
                  (     0          0          1      )

 cart.    s( 8) = (  0.0000000  1.0000000  0.0000000 )
                  (  1.0000000  0.0000000  0.0000000 )
                  (  0.0000000  0.0000000  1.0000000 )


   Cartesian axes

     site n.     atom                  positions (alat units)
         1        Zn     tau(   1) = (   0.0000000   0.0000000   0.0000000  )
         2        O      tau(   2) = (   0.5000000   0.5000000   0.5000000  )
         3        H      tau(   3) = (   0.5000000   0.5000000   1.1500000  )

   Crystallographic axes

     site n.     atom                  positions (cryst. coord.)
         1        Zn     tau(   1) = (  0.0000000  0.0000000  0.0000000  )
         2        O      tau(   2) = (  0.5000000  0.5000000  0.0500000  )
         3        H      tau(   3) = (  0.5000000  0.5000000  0.1150000  )

     number of k points=    28  Marzari-Vanderbilt smearing, width (Ry)=  0.0147
                       cart. coord. in units 2pi/alat
        k(    1) = (   0.0000000   0.0000000   0.0000000), wk =   0.0138889
        k(    2) = (   0.0000000   0.0833333   0.0000000), wk =   0.0555556
        k(    3) = (   0.0000000   0.1666667   0.0000000), wk =   0.0555556
        k(    4) = (   0.0000000   0.2500000   0.0000000), wk =   0.0555556
        k(    5) = (   0.0000000   0.3333333   0.0000000), wk =   0.0555556
        k(    6) = (   0.0000000   0.4166667   0.0000000), wk =   0.0555556
        k(    7) = (   0.0000000  -0.5000000   0.0000000), wk =   0.0277778
        k(    8) = (   0.0833333   0.0833333   0.0000000), wk =   0.0555556
        k(    9) = (   0.0833333   0.1666667   0.0000000), wk =   0.1111111
        k(   10) = (   0.0833333   0.2500000   0.0000000), wk =   0.1111111
        k(   11) = (   0.0833333   0.3333333   0.0000000), wk =   0.1111111
        k(   12) = (   0.0833333   0.4166667   0.0000000), wk =   0.1111111
        k(   13) = (   0.0833333  -0.5000000   0.0000000), wk =   0.0555556
        k(   14) = (   0.1666667   0.1666667   0.0000000), wk =   0.0555556
        k(   15) = (   0.1666667   0.2500000   0.0000000), wk =   0.1111111
        k(   16) = (   0.1666667   0.3333333   0.0000000), wk =   0.1111111
        k(   17) = (   0.1666667   0.4166667   0.0000000), wk =   0.1111111
        k(   18) = (   0.1666667  -0.5000000   0.0000000), wk =   0.0555556
        k(   19) = (   0.2500000   0.2500000   0.0000000), wk =   0.0555556
        k(   20) = (   0.2500000   0.3333333   0.0000000), wk =   0.1111111
        k(   21) = (   0.2500000   0.4166667   0.0000000), wk =   0.1111111
        k(   22) = (   0.2500000  -0.5000000   0.0000000), wk =   0.0555556
        k(   23) = (   0.3333333   0.3333333   0.0000000), wk =   0.0555556
        k(   24) = (   0.3333333   0.4166667   0.0000000), wk =   0.1111111
        k(   25) = (   0.3333333  -0.5000000   0.0000000), wk =   0.0555556
        k(   26) = (   0.4166667   0.4166667   0.0000000), wk =   0.0555556
        k(   27) = (   0.4166667  -0.5000000   0.0000000), wk =   0.0555556
        k(   28) = (  -0.5000000  -0.5000000   0.0000000), wk =   0.0138889

                       cryst. coord.
        k(    1) = (   0.0000000   0.0000000   0.0000000), wk =   0.0138889
        k(    2) = (   0.0000000   0.0833333   0.0000000), wk =   0.0555556
        k(    3) = (   0.0000000   0.1666667   0.0000000), wk =   0.0555556
        k(    4) = (   0.0000000   0.2500000   0.0000000), wk =   0.0555556
        k(    5) = (   0.0000000   0.3333333   0.0000000), wk =   0.0555556
        k(    6) = (   0.0000000   0.4166667   0.0000000), wk =   0.0555556
        k(    7) = (   0.0000000  -0.5000000   0.0000000), wk =   0.0277778
        k(    8) = (   0.0833333   0.0833333   0.0000000), wk =   0.0555556
        k(    9) = (   0.0833333   0.1666667   0.0000000), wk =   0.1111111
        k(   10) = (   0.0833333   0.2500000   0.0000000), wk =   0.1111111
        k(   11) = (   0.0833333   0.3333333   0.0000000), wk =   0.1111111
        k(   12) = (   0.0833333   0.4166667   0.0000000), wk =   0.1111111
        k(   13) = (   0.0833333  -0.5000000   0.0000000), wk =   0.0555556
        k(   14) = (   0.1666667   0.1666667   0.0000000), wk =   0.0555556
        k(   15) = (   0.1666667   0.2500000   0.0000000), wk =   0.1111111
        k(   16) = (   0.1666667   0.3333333   0.0000000), wk =   0.1111111
        k(   17) = (   0.1666667   0.4166667   0.0000000), wk =   0.1111111
        k(   18) = (   0.1666667  -0.5000000   0.0000000), wk =   0.0555556
        k(   19) = (   0.2500000   0.2500000   0.0000000), wk =   0.0555556
        k(   20) = (   0.2500000   0.3333333   0.0000000), wk =   0.1111111
        k(   21) = (   0.2500000   0.4166667   0.0000000), wk =   0.1111111
        k(   22) = (   0.2500000  -0.5000000   0.0000000), wk =   0.0555556
        k(   23) = (   0.3333333   0.3333333   0.0000000), wk =   0.0555556
        k(   24) = (   0.3333333   0.4166667   0.0000000), wk =   0.1111111
        k(   25) = (   0.3333333  -0.5000000   0.0000000), wk =   0.0555556
        k(   26) = (   0.4166667   0.4166667   0.0000000), wk =   0.0555556
        k(   27) = (   0.4166667  -0.5000000   0.0000000), wk =   0.0555556
        k(   28) = (  -0.5000000  -0.5000000   0.0000000), wk =   0.0138889

     Dense  grid:   177743 G-vectors     FFT dimensions: (  36,  36, 324)

     Smooth grid:    63081 G-vectors     FFT dimensions: (  24,  24, 240)

     Dynamical RAM for                 wfc:       2.16 MB

     Dynamical RAM for     wfc (w. buffer):      62.60 MB

     Dynamical RAM for           str. fact:       8.14 MB

     Dynamical RAM for           local pot:       0.00 MB

     Dynamical RAM for          nlocal pot:       3.36 MB

     Dynamical RAM for                qrad:       4.82 MB

     Dynamical RAM for          rho,v,vnew:      17.75 MB

     Dynamical RAM for               rhoin:       5.92 MB

     Dynamical RAM for            rho*nmix:      43.39 MB

     Dynamical RAM for           G-vectors:      10.65 MB

     Dynamical RAM for          h,s,v(r/c):       0.06 MB

     Dynamical RAM for          <psi|beta>:       0.01 MB

     Dynamical RAM for                 psi:       4.32 MB

     Dynamical RAM for                hpsi:       4.32 MB

     Dynamical RAM for                spsi:       4.32 MB

     Dynamical RAM for      wfcinit/wfcrot:       4.32 MB

     Dynamical RAM for           addusdens:     507.17 MB

     Dynamical RAM for          addusforce:     508.53 MB

     Dynamical RAM for         addusstress:     545.14 MB

     Estimated static dynamical RAM per process >     140.09 MB

     Estimated max dynamical RAM per process >     728.62 MB

     Initial potential from superposition of free atoms

     starting charge      26.9998, renormalised to      27.0000

     negative rho (up, down):  1.304E-04 0.000E+00
     Starting wfcs are   18 randomized atomic wfcs
     Checking if some PAW data can be deallocated... 

     total cpu time spent up to now is        4.5 secs

     Self-consistent Calculation

     iteration #  1     ecut=    50.00 Ry     beta= 0.40
     Davidson diagonalization with overlap

---- Real-time Memory Report at c_bands before calling an iterative solver
           610 MiB given to the printing process from OS
             0 MiB allocation reported by mallinfo(arena+hblkhd)
          5297 MiB available memory on the node where the printing process lives
------------------
     ethr =  1.00E-02,  avg # of iterations =  6.6

     negative rho (up, down):  6.308E-05 0.000E+00

     total cpu time spent up to now is       13.9 secs

     total energy              =    -503.73163540 Ry
     estimated scf accuracy    <       0.89072075 Ry

     iteration #  2     ecut=    50.00 Ry     beta= 0.40
     Davidson diagonalization with overlap

---- Real-time Memory Report at c_bands before calling an iterative solver
           698 MiB given to the printing process from OS
             0 MiB allocation reported by mallinfo(arena+hblkhd)
          5276 MiB available memory on the node where the printing process lives
------------------
     ethr =  3.30E-03,  avg # of iterations =  4.0

     negative rho (up, down):  6.792E-05 0.000E+00

     total cpu time spent up to now is       23.3 secs

     total energy              =    -503.42965138 Ry
     estimated scf accuracy    <       5.63334369 Ry

     iteration #  3     ecut=    50.00 Ry     beta= 0.40
     Davidson diagonalization with overlap

---- Real-time Memory Report at c_bands before calling an iterative solver
           705 MiB given to the printing process from OS
             0 MiB allocation reported by mallinfo(arena+hblkhd)
          5270 MiB available memory on the node where the printing process lives
------------------
     ethr =  3.30E-03,  avg # of iterations =  2.8

     negative rho (up, down):  4.928E-05 0.000E+00

     total cpu time spent up to now is       32.4 secs

     total energy              =    -504.08898988 Ry
     estimated scf accuracy    <       0.31134578 Ry

     iteration #  4     ecut=    50.00 Ry     beta= 0.40
     Davidson diagonalization with overlap

---- Real-time Memory Report at c_bands before calling an iterative solver
           708 MiB given to the printing process from OS
             0 MiB allocation reported by mallinfo(arena+hblkhd)
          5269 MiB available memory on the node where the printing process lives
------------------
     ethr =  1.15E-03,  avg # of iterations =  1.1

     negative rho (up, down):  5.372E-05 0.000E+00

     total cpu time spent up to now is       40.5 secs

     total energy              =    -504.09865957 Ry
     estimated scf accuracy    <       0.13368322 Ry

     iteration #  5     ecut=    50.00 Ry     beta= 0.40
     Davidson diagonalization with overlap

---- Real-time Memory Report at c_bands before calling an iterative solver
           710 MiB given to the printing process from OS
             0 MiB allocation reported by mallinfo(arena+hblkhd)
          5265 MiB available memory on the node where the printing process lives
------------------
     ethr =  4.95E-04,  avg # of iterations =  2.2

     negative rho (up, down):  7.101E-05 0.000E+00

     total cpu time spent up to now is       48.5 secs

     total energy              =    -504.08677217 Ry
     estimated scf accuracy    <       0.05699523 Ry

     iteration #  6     ecut=    50.00 Ry     beta= 0.40
     Davidson diagonalization with overlap

---- Real-time Memory Report at c_bands before calling an iterative solver
           713 MiB given to the printing process from OS
             0 MiB allocation reported by mallinfo(arena+hblkhd)
          5261 MiB available memory on the node where the printing process lives
------------------
     ethr =  2.11E-04,  avg # of iterations =  3.7

     negative rho (up, down):  8.665E-05 0.000E+00

     total cpu time spent up to now is       56.8 secs

     total energy              =    -504.09175015 Ry
     estimated scf accuracy    <       0.00353556 Ry

     iteration #  7     ecut=    50.00 Ry     beta= 0.40
     Davidson diagonalization with overlap

---- Real-time Memory Report at c_bands before calling an iterative solver
           714 MiB given to the printing process from OS
             0 MiB allocation reported by mallinfo(arena+hblkhd)
          5260 MiB available memory on the node where the printing process lives
------------------
     ethr =  1.31E-05,  avg # of iterations =  6.1

     negative rho (up, down):  1.083E-04 0.000E+00

     total cpu time spent up to now is       66.4 secs

     total energy              =    -504.09208182 Ry
     estimated scf accuracy    <       0.00076016 Ry

     iteration #  8     ecut=    50.00 Ry     beta= 0.40
     Davidson diagonalization with overlap

---- Real-time Memory Report at c_bands before calling an iterative solver
           716 MiB given to the printing process from OS
             0 MiB allocation reported by mallinfo(arena+hblkhd)
          5259 MiB available memory on the node where the printing process lives
------------------
     ethr =  2.82E-06,  avg # of iterations =  6.0

     negative rho (up, down):  1.152E-04 0.000E+00

     total cpu time spent up to now is       76.2 secs

     total energy              =    -504.09216138 Ry
     estimated scf accuracy    <       0.00048779 Ry

     iteration #  9     ecut=    50.00 Ry     beta= 0.40
     Davidson diagonalization with overlap

---- Real-time Memory Report at c_bands before calling an iterative solver
           718 MiB given to the printing process from OS
             0 MiB allocation reported by mallinfo(arena+hblkhd)
          5253 MiB available memory on the node where the printing process lives
------------------
     ethr =  1.81E-06,  avg # of iterations =  1.8

     negative rho (up, down):  1.256E-04 0.000E+00

     total cpu time spent up to now is       84.1 secs

     total energy              =    -504.09219870 Ry
     estimated scf accuracy    <       0.00000424 Ry

     iteration # 10     ecut=    50.00 Ry     beta= 0.40
     Davidson diagonalization with overlap

---- Real-time Memory Report at c_bands before calling an iterative solver
           720 MiB given to the printing process from OS
             0 MiB allocation reported by mallinfo(arena+hblkhd)
          5251 MiB available memory on the node where the printing process lives
------------------
     ethr =  1.57E-08,  avg # of iterations =  2.1

     negative rho (up, down):  1.315E-04 0.000E+00

     total cpu time spent up to now is       92.5 secs

     total energy              =    -504.09219931 Ry
     estimated scf accuracy    <       0.00000051 Ry

     iteration # 11     ecut=    50.00 Ry     beta= 0.40
     Davidson diagonalization with overlap

---- Real-time Memory Report at c_bands before calling an iterative solver
           720 MiB given to the printing process from OS
             0 MiB allocation reported by mallinfo(arena+hblkhd)
          5252 MiB available memory on the node where the printing process lives
------------------
     ethr =  1.89E-09,  avg # of iterations =  2.1

     negative rho (up, down):  1.321E-04 0.000E+00

     total cpu time spent up to now is      102.2 secs

     total energy              =    -504.09219925 Ry
     estimated scf accuracy    <       0.00000117 Ry

     iteration # 12     ecut=    50.00 Ry     beta= 0.40
     Davidson diagonalization with overlap

---- Real-time Memory Report at c_bands before calling an iterative solver
           720 MiB given to the printing process from OS
             0 MiB allocation reported by mallinfo(arena+hblkhd)
          5251 MiB available memory on the node where the printing process lives
------------------
     ethr =  1.89E-09,  avg # of iterations =  1.6

     negative rho (up, down):  1.329E-04 0.000E+00

     total cpu time spent up to now is      110.2 secs

     total energy              =    -504.09219943 Ry
     estimated scf accuracy    <       0.00000029 Ry

     iteration # 13     ecut=    50.00 Ry     beta= 0.40
     Davidson diagonalization with overlap

---- Real-time Memory Report at c_bands before calling an iterative solver
           720 MiB given to the printing process from OS
             0 MiB allocation reported by mallinfo(arena+hblkhd)
          5252 MiB available memory on the node where the printing process lives
------------------
     ethr =  1.07E-09,  avg # of iterations =  1.0

     negative rho (up, down):  1.333E-04 0.000E+00

     total cpu time spent up to now is      117.6 secs

     End of self-consistent calculation

          k = 0.0000 0.0000 0.0000 (  7831 PWs)   bands (ev):

  -128.2068 -82.3772 -82.3772 -82.3472 -20.1202  -9.9639  -9.7555  -8.9358
    -8.9358  -8.7773  -8.1673  -5.8103  -3.0116  -3.0116  -2.6989   0.8412
     1.5358   1.6264

     occupation numbers 
     1.0000   1.0000   1.0000   1.0000   1.0000   1.0000   1.0000   1.0000
     1.0000   1.0000   1.0000   1.0000   1.0632   1.0632   0.5446   0.0000
     0.0000   0.0000

          k = 0.0000 0.0833 0.0000 (  7841 PWs)   bands (ev):

  -128.2067 -82.3784 -82.3772 -82.3472 -20.0736  -9.8972  -9.7229  -8.9698
    -8.9314  -8.8003  -8.1261  -5.7155  -3.3092  -2.9847  -2.5964   1.0016
     1.6783   1.7752

     occupation numbers 
     1.0000   1.0000   1.0000   1.0000   1.0000   1.0000   1.0000   1.0000
     1.0000   1.0000   1.0000   1.0000   1.0005   1.0744   0.2153   0.0000
     0.0000   0.0000

          k = 0.0000 0.1667 0.0000 (  7857 PWs)   bands (ev):

  -128.2065 -82.3815 -82.3770 -82.3469 -19.9431  -9.7946  -9.5618  -9.0523
    -8.9242  -8.8571  -7.9974  -5.4971  -3.9085  -2.9115  -2.3655   1.4432
     2.1038   2.2124

     occupation numbers 
     1.0000   1.0000   1.0000   1.0000   1.0000   1.0000   1.0000   1.0000
     1.0000   1.0000   1.0000   1.0000   1.0000   1.0769   0.0046   0.0000
     0.0000   0.0000

          k = 0.0000 0.2500 0.0000 (  7881 PWs)   bands (ev):

  -128.2063 -82.3857 -82.3767 -82.3466 -19.7562  -9.7449  -9.2943  -9.1380
    -8.9670  -8.8801  -7.7597  -5.5197  -4.1696  -2.8123  -2.0413   2.1275
     2.8082   2.9237

     occupation numbers 
     1.0000   1.0000   1.0000   1.0000   1.0000   1.0000   1.0000   1.0000
     1.0000   1.0000   1.0000   1.0000   1.0000   0.9307   0.0000   0.0000
     0.0000   0.0000

          k = 0.0000 0.3333 0.0000 (  7882 PWs)   bands (ev):

  -128.2060 -82.3900 -82.3764 -82.3462 -19.5581  -9.7229  -9.2231  -9.0601
    -9.0455  -8.8648  -7.4042  -5.9874  -3.6888  -2.7136  -1.6945   2.8326
     3.0689   3.7917

     occupation numbers 
     1.0000   1.0000   1.0000   1.0000   1.0000   1.0000   1.0000   1.0000
     1.0000   1.0000   1.0000   1.0000   1.0000   0.5998   0.0000   0.0000
     0.0000   0.0000

          k = 0.0000 0.4167 0.0000 (  7900 PWs)   bands (ev):

  -128.2058 -82.3931 -82.3762 -82.3460 -19.4049  -9.7191  -9.2504  -9.1043
    -8.9762  -8.8508  -7.0339  -6.3895  -2.8861  -2.6417  -1.4973   1.2125
     4.1248   4.6253

     occupation numbers 
     1.0000   1.0000   1.0000   1.0000   1.0000   1.0000   1.0000   1.0000
     1.0000   1.0000   1.0000   1.0000   1.0597   0.3430   0.0000   0.0000
     0.0000   0.0000

          k = 0.0000-0.5000 0.0000 (  7920 PWs)   bands (ev):

  -128.2057 -82.3943 -82.3761 -82.3459 -19.3469  -9.7200  -9.2573  -9.1258
    -8.9635  -8.8456  -6.8579  -6.5450  -2.6153  -2.2410  -1.6578   0.5355
     4.3392   5.3754

     occupation numbers 
     1.0000   1.0000   1.0000   1.0000   1.0000   1.0000   1.0000   1.0000
     1.0000   1.0000   1.0000   1.0000   0.2646   0.0002   0.0000   0.0000
     0.0000   0.0000

          k = 0.0833 0.0833 0.0000 (  7870 PWs)   bands (ev):

  -128.2067 -82.3783 -82.3783 -82.3471 -20.0276  -9.8232  -9.7001  -8.9657
    -8.9628  -8.8264  -8.0816  -5.6286  -3.3443  -3.1830  -2.5070   1.1562
     1.8205   1.9228

     occupation numbers 
     1.0000   1.0000   1.0000   1.0000   1.0000   1.0000   1.0000   1.0000
     1.0000   1.0000   1.0000   1.0000   1.0002   1.0069   0.0653   0.0000
     0.0000   0.0000

          k = 0.0833 0.1667 0.0000 (  7854 PWs)   bands (ev):

  -128.2065 -82.3814 -82.3781 -82.3468 -19.8985  -9.7176  -9.5507  -9.0461
    -8.9520  -8.8911  -7.9432  -5.4358  -3.8423  -3.1431  -2.2842   1.5885
     2.2455   2.3578

     occupation numbers 
     1.0000   1.0000   1.0000   1.0000   1.0000   1.0000   1.0000   1.0000
     1.0000   1.0000   1.0000   1.0000   1.0000   1.0135   0.0006   0.0000
     0.0000   0.0000

          k = 0.0833 0.2500 0.0000 (  7876 PWs)   bands (ev):

  -128.2062 -82.3856 -82.3778 -82.3465 -19.7138  -9.6744  -9.2922  -9.1364
    -8.9885  -8.9180  -7.6912  -5.4790  -4.0781  -3.0080  -1.9635   2.2648
     2.9494   3.0674

     occupation numbers 
     1.0000   1.0000   1.0000   1.0000   1.0000   1.0000   1.0000   1.0000
     1.0000   1.0000   1.0000   1.0000   1.0000   1.0648   0.0000   0.0000
     0.0000   0.0000

          k = 0.0833 0.3333 0.0000 (  7864 PWs)   bands (ev):

  -128.2059 -82.3899 -82.3775 -82.3462 -19.5181  -9.6518  -9.2209  -9.1323
    -9.0128  -8.9029  -7.3237  -5.9215  -3.6575  -2.8420  -1.6147   2.9407
     3.2071   3.9299

     occupation numbers 
     1.0000   1.0000   1.0000   1.0000   1.0000   1.0000   1.0000   1.0000
     1.0000   1.0000   1.0000   1.0000   1.0000   0.9975   0.0000   0.0000
     0.0000   0.0000

          k = 0.0833 0.4167 0.0000 (  7894 PWs)   bands (ev):

  -128.2057 -82.3930 -82.3773 -82.3459 -19.3669  -9.6456  -9.2607  -9.1542
    -8.9726  -8.8837  -6.9518  -6.3008  -3.1078  -2.5213  -1.4027   1.3200
     4.2525   4.7485

     occupation numbers 
     1.0000   1.0000   1.0000   1.0000   1.0000   1.0000   1.0000   1.0000
     1.0000   1.0000   1.0000   1.0000   1.0228   0.0811   0.0000   0.0000
     0.0000   0.0000

          k = 0.0833-0.5000 0.0000 (  7904 PWs)   bands (ev):

  -128.2056 -82.3942 -82.3772 -82.3458 -19.3097  -9.6451  -9.2767  -9.1643
    -8.9728  -8.8723  -6.7830  -6.4422  -2.9526  -2.0116  -1.5414   0.6294
     4.4798   5.4500

     occupation numbers 
     1.0000   1.0000   1.0000   1.0000   1.0000   1.0000   1.0000   1.0000
     1.0000   1.0000   1.0000   1.0000   1.0827   0.0000   0.0000   0.0000
     0.0000   0.0000

          k = 0.1667 0.1667 0.0000 (  7864 PWs)   bands (ev):

  -128.2063 -82.3813 -82.3811 -82.3466 -19.7737  -9.5376  -9.5024  -9.0486
    -9.0093  -8.9704  -7.7779  -5.3149  -3.6546  -3.6352  -2.0662   2.0039
     2.6696   2.7885

     occupation numbers 
     1.0000   1.0000   1.0000   1.0000   1.0000   1.0000   1.0000   1.0000
     1.0000   1.0000   1.0000   1.0000   1.0000   1.0000   0.0000   0.0000
     0.0000   0.0000

          k = 0.1667 0.2500 0.0000 (  7859 PWs)   bands (ev):

  -128.2060 -82.3854 -82.3809 -82.3463 -19.5953  -9.4932  -9.2956  -9.1385
    -9.0364  -9.0033  -7.4904  -5.3808  -3.9474  -3.3313  -1.7467   2.6617
     3.3719   3.4946

     occupation numbers 
     1.0000   1.0000   1.0000   1.0000   1.0000   1.0000   1.0000   1.0000
     1.0000   1.0000   1.0000   1.0000   1.0000   1.0003   0.0000   0.0000
     0.0000   0.0000

          k = 0.1667 0.3333 0.0000 (  7846 PWs)   bands (ev):

  -128.2057 -82.3896 -82.3806 -82.3459 -19.4066  -9.4682  -9.2514  -9.2142
    -9.0062  -8.9813  -7.0983  -5.7419  -3.8374  -2.8577  -1.3899   3.2458
     3.5992   4.3419

     occupation numbers 
     1.0000   1.0000   1.0000   1.0000   1.0000   1.0000   1.0000   1.0000
     1.0000   1.0000   1.0000   1.0000   1.0000   1.0247   0.0000   0.0000
     0.0000   0.0000

          k = 0.1667 0.4167 0.0000 (  7870 PWs)   bands (ev):

  -128.2055 -82.3927 -82.3803 -82.3457 -19.2610  -9.4539  -9.3271  -9.2242
    -9.0291  -8.9065  -6.7267  -6.0613  -3.6432  -2.1926  -1.1387   1.6186
     4.6185   5.1068

     occupation numbers 
     1.0000   1.0000   1.0000   1.0000   1.0000   1.0000   1.0000   1.0000
     1.0000   1.0000   1.0000   1.0000   1.0000   0.0000   0.0000   0.0000
     0.0000   0.0000

          k = 0.1667-0.5000 0.0000 (  7874 PWs)   bands (ev):

  -128.2054 -82.3939 -82.3802 -82.3456 -19.2060  -9.4436  -9.3655  -9.2219
    -9.0479  -8.8826  -6.5725  -6.1723  -3.5651  -1.6399  -1.1971   0.8863
     4.8979   5.6407

     occupation numbers 
     1.0000   1.0000   1.0000   1.0000   1.0000   1.0000   1.0000   1.0000
     1.0000   1.0000   1.0000   1.0000   1.0000   0.0000   0.0000   0.0000
     0.0000   0.0000

          k = 0.2500 0.2500 0.0000 (  7842 PWs)   bands (ev):

  -128.2057 -82.3852 -82.3850 -82.3459 -19.4262  -9.3392  -9.2980  -9.1497
    -9.0975  -9.0366  -7.1667  -5.3298  -4.2270  -3.0539  -1.4242   3.2919
     4.0702   4.1967

     occupation numbers 
     1.0000   1.0000   1.0000   1.0000   1.0000   1.0000   1.0000   1.0000
     1.0000   1.0000   1.0000   1.0000   1.0000   1.0435   0.0000   0.0000
     0.0000   0.0000

          k = 0.2500 0.3333 0.0000 (  7834 PWs)   bands (ev):

  -128.2054 -82.3893 -82.3847 -82.3456 -19.2477  -9.4094  -9.2691  -9.1732
    -9.0918  -8.9701  -6.7601  -5.4999  -4.3631  -2.4318  -1.0533   3.6847
     4.1789   5.0112

     occupation numbers 
     1.0000   1.0000   1.0000   1.0000   1.0000   1.0000   1.0000   1.0000
     1.0000   1.0000   1.0000   1.0000   1.0000   0.0179   0.0000   0.0000
     0.0000   0.0000

          k = 0.2500 0.4167 0.0000 (  7841 PWs)   bands (ev):

  -128.2052 -82.3924 -82.3845 -82.3454 -19.1103  -9.4745  -9.2866  -9.2049
    -9.1037  -8.8779  -6.3988  -5.7357  -4.2866  -1.6831  -0.7397   2.0664
     5.1404   5.6466

     occupation numbers 
     1.0000   1.0000   1.0000   1.0000   1.0000   1.0000   1.0000   1.0000
     1.0000   1.0000   1.0000   1.0000   1.0000   0.0000   0.0000   0.0000
     0.0000   0.0000

          k = 0.2500-0.5000 0.0000 (  7850 PWs)   bands (ev):

  -128.2051 -82.3935 -82.3844 -82.3453 -19.0585  -9.4994  -9.2714  -9.2470
    -9.1061  -8.8465  -6.2578  -5.8202  -4.2357  -1.1890  -0.6369   1.2724
     5.5533   5.8344

     occupation numbers 
     1.0000   1.0000   1.0000   1.0000   1.0000   1.0000   1.0000   1.0000
     1.0000   1.0000   1.0000   1.0000   1.0000   0.0000   0.0000   0.0000
     0.0000   0.0000

          k = 0.3333 0.3333 0.0000 (  7832 PWs)   bands (ev):

  -128.2051 -82.3890 -82.3888 -82.3453 -19.0804  -9.5140  -9.3160  -9.1930
    -8.9552  -8.9419  -6.3624  -5.3126  -4.8128  -1.7783  -0.6522   3.8072
     4.7044   5.5072

     occupation numbers 
     1.0000   1.0000   1.0000   1.0000   1.0000   1.0000   1.0000   1.0000
     1.0000   1.0000   1.0000   1.0000   1.0000   0.0000   0.0000   0.0000
     0.0000   0.0000

          k = 0.3333 0.4167 0.0000 (  7838 PWs)   bands (ev):

  -128.2049 -82.3920 -82.3887 -82.3450 -18.9519  -9.5857  -9.3525  -9.2717
    -8.9392  -8.7983  -6.0215  -5.4072  -4.8536  -1.0652  -0.2235   2.5962
     5.1172   6.0087

     occupation numbers 
     1.0000   1.0000   1.0000   1.0000   1.0000   1.0000   1.0000   1.0000
     1.0000   1.0000   1.0000   1.0000   1.0000   0.0000   0.0000   0.0000
     0.0000   0.0000

          k = 0.3333-0.5000 0.0000 (  7856 PWs)   bands (ev):

  -128.2048 -82.3931 -82.3886 -82.3450 -18.9035  -9.6103  -9.3382  -9.3330
    -8.9339  -8.7490  -5.8898  -5.4886  -4.8010  -0.7168   0.1294   1.7617
     5.3178   6.3805

     occupation numbers 
     1.0000   1.0000   1.0000   1.0000   1.0000   1.0000   1.0000   1.0000
     1.0000   1.0000   1.0000   1.0000   1.0000   0.0000   0.0000   0.0000
     0.0000   0.0000

          k = 0.4167 0.4167 0.0000 (  7842 PWs)   bands (ev):

  -128.2047 -82.3918 -82.3917 -82.3448 -18.8305  -9.6511  -9.4099  -9.3584
    -8.8811  -8.6549  -5.6977  -5.2622  -5.1236  -0.5378   0.4714   2.8413
     3.9510   6.1949

     occupation numbers 
     1.0000   1.0000   1.0000   1.0000   1.0000   1.0000   1.0000   1.0000
     1.0000   1.0000   1.0000   1.0000   1.0000   0.0000   0.0000   0.0000
     0.0000   0.0000

          k = 0.4167-0.5000 0.0000 (  7830 PWs)   bands (ev):

  -128.2046 -82.3928 -82.3916 -82.3447 -18.7848  -9.6705  -9.4162  -9.4112
    -8.8694  -8.5949  -5.5695  -5.3696  -5.0473  -0.3415   1.1048   2.2648
     3.8239   6.2534

     occupation numbers 
     1.0000   1.0000   1.0000   1.0000   1.0000   1.0000   1.0000   1.0000
     1.0000   1.0000   1.0000   1.0000   1.0000   0.0000   0.0000   0.0000
     0.0000   0.0000

          k =-0.5000-0.5000 0.0000 (  7904 PWs)   bands (ev):

  -128.2046 -82.3928 -82.3928 -82.3447 -18.7402  -9.6859  -9.4462  -9.4462
    -8.8555  -8.5298  -5.4381  -5.4381  -5.0164  -0.1958   2.1639   2.5108
     2.5108   6.1840

     occupation numbers 
     1.0000   1.0000   1.0000   1.0000   1.0000   1.0000   1.0000   1.0000
     1.0000   1.0000   1.0000   1.0000   1.0000   0.0000   0.0000   0.0000
     0.0000   0.0000

     the Fermi energy is    -2.6591 ev

!    total energy              =    -504.09219944 Ry
     estimated scf accuracy    <          7.8E-09 Ry
     smearing contrib. (-TS)   =       0.00067735 Ry
     internal energy E=F+TS    =    -504.09287679 Ry

     The total energy is F=E-TS. E is the sum of the following terms:
     one-electron contribution =   -2805.15426272 Ry
     hartree contribution      =    1401.30404969 Ry
     xc contribution           =     -49.88107907 Ry
     ewald contribution        =     959.18472843 Ry
     one-center paw contrib.   =      -9.54631312 Ry
      -> PAW hartree energy AE =      23.83668645 Ry
      -> PAW hartree energy PS =     -23.73522664 Ry
      -> PAW xc energy AE      =     -16.32271418 Ry
      -> PAW xc energy PS      =       6.67494125 Ry
      -> total E_H with PAW    =    1401.40550950 Ry
      -> total E_XC with PAW   =     -59.52885200 Ry

     convergence has been achieved in  13 iterations

     negative rho (up, down):  1.333E-04 0.000E+00

     Forces acting on atoms (cartesian axes, Ry/au):

     atom    1 type  2   force =     0.00000000    0.00000000    0.10696180
     atom    2 type  1   force =     0.00000000    0.00000000    0.01919788
     atom    3 type  3   force =     0.00000000    0.00000000   -0.12615968
     The non-local contrib.  to forces
     atom    1 type  2   force =     0.00000000    0.00000000   -0.60010325
     atom    2 type  1   force =     0.00000000    0.00000000    0.07363423
     atom    3 type  3   force =     0.00000000    0.00000000   -0.00776580
     The ionic contribution  to forces
     atom    1 type  2   force =     0.00000000    0.00000000  -52.62015230
     atom    2 type  1   force =     0.00000000    0.00000000   42.39475816
     atom    3 type  3   force =     0.00000000    0.00000000   10.22539414
     The local contribution  to forces
     atom    1 type  2   force =     0.00000000    0.00000000   53.32817657
     atom    2 type  1   force =     0.00000000    0.00000000  -42.44701257
     atom    3 type  3   force =    -0.00000000   -0.00000000  -10.34400077
     The core correction contribution to forces
     atom    1 type  2   force =     0.00000000    0.00000000    0.00000000
     atom    2 type  1   force =     0.00000000   -0.00000000   -0.00238045
     atom    3 type  3   force =     0.00000000    0.00000000    0.00000000
     The Hubbard contrib.    to forces
     atom    1 type  2   force =     0.00000000    0.00000000    0.00000000
     atom    2 type  1   force =     0.00000000    0.00000000    0.00000000
     atom    3 type  3   force =     0.00000000    0.00000000    0.00000000
     The SCF correction term to forces
     atom    1 type  2   force =    -0.00000000    0.00000000   -0.00115520
     atom    2 type  1   force =     0.00000000   -0.00000000    0.00000254
     atom    3 type  3   force =    -0.00000000   -0.00000000    0.00001677

     Total force =     0.166510     Total SCF correction =     0.001155


     Computing stress (Cartesian axis) and pressure


     negative rho (up, down):  1.333E-04 0.000E+00
          total   stress  (Ry/bohr**3)                   (kbar)     P=      -26.61
  -0.00000707   0.00000000   0.00000000           -1.04        0.00        0.00
   0.00000000  -0.00000707   0.00000000            0.00       -1.04        0.00
   0.00000000   0.00000000  -0.00052857            0.00        0.00      -77.76

     kinetic stress (kbar)   4323.08      0.00      0.00
                                0.00   4323.08      0.00
                                0.00      0.00   4130.57

     local   stress (kbar)-271644.13      0.00      0.00
                                0.00-271644.13      0.00
                                0.00      0.00 272191.62

     nonloc. stress (kbar)    -73.77      0.00      0.00
                                0.00    -73.77      0.00
                                0.00      0.00    -76.76

     hartree stress (kbar) 141897.56     -0.00     -0.00
                               -0.00 141897.56     -0.00
                               -0.00     -0.00-127189.28

     exc-cor stress (kbar)  -1731.25     -0.00      0.00
                               -0.00  -1731.25      0.00
                                0.00      0.00  -1732.71

     corecor stress (kbar)    -47.67     -0.00      0.00
                               -0.00    -47.67     -0.00
                                0.00     -0.00    -46.76

     ewald   stress (kbar) 127275.13      0.00      0.00
                                0.00 127275.13      0.00
                                0.00      0.00-147354.44

     hubbard stress (kbar)      0.00      0.00      0.00
                                0.00      0.00      0.00
                                0.00      0.00      0.00

     DFT-D   stress (kbar)      0.00      0.00      0.00
                                0.00      0.00      0.00
                                0.00      0.00      0.00

     XDM     stress (kbar)      0.00      0.00      0.00
                                0.00      0.00      0.00
                                0.00      0.00      0.00

     dft-nl  stress (kbar)      0.00      0.00      0.00
                                0.00      0.00      0.00
                                0.00      0.00      0.00

     TS-vdW  stress (kbar)      0.00      0.00      0.00
                                0.00      0.00      0.00
                                0.00      0.00      0.00

     MDB     stress (kbar)      0.00      0.00      0.00
                                0.00      0.00      0.00
                                0.00      0.00      0.00

     3D-RISM stress (kbar)      0.00      0.00      0.00
                                0.00      0.00      0.00
                                0.00      0.00      0.00


     Writing all to output data dir ./temp_cubic/aiida.save/ :
     XML data file, charge density, pseudopotentials, collected wavefunctions

     init_run     :     78.78s CPU      4.18s WALL (       1 calls)
     electrons    :   2193.59s CPU    113.13s WALL (       1 calls)
     forces       :     20.99s CPU      1.34s WALL (       1 calls)
     stress       :     27.17s CPU      3.83s WALL (       1 calls)

     Called by init_run:
     wfcinit      :     73.26s CPU      3.29s WALL (       1 calls)
     wfcinit:atom :      1.03s CPU      0.05s WALL (      28 calls)
     wfcinit:wfcr :     69.83s CPU      3.02s WALL (      28 calls)
     potinit      :      2.16s CPU      0.16s WALL (       1 calls)
     hinit0       :      1.35s CPU      0.28s WALL (       1 calls)

     Called by electrons:
     c_bands      :   1823.39s CPU     87.62s WALL (      13 calls)
     sum_band     :    330.72s CPU     19.26s WALL (      13 calls)
     v_of_rho     :     11.73s CPU      0.99s WALL (      14 calls)
     v_h          :      1.60s CPU      0.12s WALL (      14 calls)
     v_xc         :     11.49s CPU      0.99s WALL (      16 calls)
     newd         :     18.39s CPU      5.07s WALL (      14 calls)
     PAW_pot      :      2.16s CPU      0.11s WALL (      14 calls)
     mix_rho      :      4.99s CPU      0.27s WALL (      13 calls)

     Called by c_bands:
     init_us_2    :     23.81s CPU      1.49s WALL (     812 calls)
     cegterg      :   1794.30s CPU     85.69s WALL (     364 calls)

     Called by sum_band:
     sum_band:wei :      0.00s CPU      0.00s WALL (      13 calls)
     sum_band:loo :    319.12s CPU     13.41s WALL (      13 calls)
     sum_band:buf :      1.21s CPU      0.09s WALL (     364 calls)
     sum_band:ini :     10.40s CPU      0.53s WALL (     364 calls)
     sum_band:cal :     59.67s CPU      2.12s WALL (     364 calls)
     sum_band:bec :      7.47s CPU      0.34s WALL (     364 calls)
     addusdens    :     10.18s CPU      5.58s WALL (      13 calls)
                                        0.00s GPU  (      13 calls)
     addusd:skk   :      0.31s CPU      0.01s WALL (      39 calls)
                                        0.00s GPU  (      39 calls)

     Called by *egterg:
     cdiaghg      :      5.67s CPU      0.37s WALL (    1514 calls)
     cegterg:over :     96.84s CPU      5.31s WALL (    1150 calls)
     cegterg:upda :     48.61s CPU      4.07s WALL (    1150 calls)
     cegterg:last :     41.03s CPU      5.91s WALL (     636 calls)
     h_psi        :   1472.91s CPU     63.11s WALL (    1542 calls)
     s_psi        :    100.73s CPU      5.01s WALL (    1542 calls)
     g_psi        :     11.16s CPU      0.56s WALL (    1150 calls)

     Called by h_psi:
     h_psi:calbec :    141.19s CPU      5.14s WALL (    1542 calls)
     vloc_psi     :   1212.14s CPU     52.28s WALL (    1542 calls)
     add_vuspsi   :    104.15s CPU      4.93s WALL (    1542 calls)

     General routines
     calbec       :    220.93s CPU      8.06s WALL (    2046 calls)
     fft          :     13.57s CPU      1.01s WALL (     205 calls)
     ffts         :      0.80s CPU      0.05s WALL (      27 calls)
     fftw         :    840.39s CPU     36.75s WALL (   37340 calls)
     interpolate  :      3.13s CPU      0.12s WALL (      14 calls)

     Parallel routines

     PAW routines
     PAW_pot      :      2.16s CPU      0.11s WALL (      14 calls)
     PAW_symme    :      0.00s CPU      0.00s WALL (      27 calls)

     PWSCF        :  38m50.97s CPU   2m 3.97s WALL


   This run was terminated on:  20:46: 3  14Jun2024            

=------------------------------------------------------------------------------=
   JOB DONE.
=------------------------------------------------------------------------------=
