
     Program PWSCF v.7.3.1 starts on 14Jun2024 at 20:54:56 

     This program is part of the open-source Quantum ESPRESSO suite
     for quantum simulation of materials; please cite
         "P. Giannozzi et al., J. Phys.:Condens. Matter 21 395502 (2009);
         "P. Giannozzi et al., J. Phys.:Condens. Matter 29 465901 (2017);
         "P. Giannozzi et al., J. Chem. Phys. 152 154105 (2020);
          URL http://www.quantum-espresso.org", 
     in publications or presentations arising from this work. More details at
     http://www.quantum-espresso.org/quote

     Parallel version (MPI & OpenMP), running on      24 processor cores
     Number of MPI processes:                 1
     Threads/MPI process:                    24

     MPI processes distributed on     1 nodes
     5459 MiB available memory on the printing compute node when the environment starts

     Waiting for input...
     Reading input from standard input

     Current dimensions of program PWSCF are:
     Max number of different atomic species (ntypx) = 10
     Max number of k-points (npk) =  40000
     Max angular momentum in pseudopotentials (lmaxx) =  4
     file O.pbe-n-kjpaw_psl.0.1.UPF: wavefunction(s)  2P renormalized
     Message from routine setup:
     using ibrav=0 with symmetry is DISCOURAGED, use correct ibrav instead

     Subspace diagonalization in iterative solution of the eigenvalue problem:
     a serial algorithm will be used


     G-vector sticks info
     --------------------
     sticks:   dense  smooth     PW     G-vecs:    dense   smooth      PW
     Sum         829     421    137               177743    63081   11257

     Using Slab Decomposition



     bravais-lattice index     =            0
     lattice parameter (alat)  =       5.0869  a.u.
     unit-cell volume          =    1316.2915 (a.u.)^3
     number of atoms/cell      =            3
     number of atomic types    =            3
     number of electrons       =        27.00
     number of Kohn-Sham states=           18
     kinetic-energy cutoff     =      50.0000  Ry
     charge density cutoff     =     400.0000  Ry
     scf convergence threshold =      1.0E-08
     mixing beta               =       0.4000
     number of iterations used =            8  plain     mixing
     Exchange-correlation= PBE
                           (   1   4   3   4   0   0   0)

     celldm(1)=   5.086871  celldm(2)=   0.000000  celldm(3)=   0.000000
     celldm(4)=   0.000000  celldm(5)=   0.000000  celldm(6)=   0.000000

     crystal axes: (cart. coord. in units of alat)
               a(1) = (   1.000000   0.000000   0.000000 )  
               a(2) = (   0.000000   1.000000   0.000000 )  
               a(3) = (   0.000000   0.000000  10.000000 )  

     reciprocal axes: (cart. coord. in units 2 pi/alat)
               b(1) = (  1.000000  0.000000  0.000000 )  
               b(2) = (  0.000000  1.000000  0.000000 )  
               b(3) = (  0.000000  0.000000  0.100000 )  


     PseudoPot. # 1 for O  read from file:
     ../SSSP_1.3.0_PBE_efficiency/O.pbe-n-kjpaw_psl.0.1.UPF
     MD5 check sum: 0234752ac141de4415c5fc33072bef88
     Pseudo is Projector augmented-wave + core cor, Zval =  6.0
     Generated using "atomic" code by A. Dal Corso  v.5.0.99 svn rev. 10869
     Shape of augmentation charge: BESSEL
     Using radial grid of 1095 points,  4 beta functions with: 
                l(1) =   0
                l(2) =   0
                l(3) =   1
                l(4) =   1
     Q(r) pseudized with 0 coefficients 


     PseudoPot. # 2 for Zn read from file:
     ../SSSP_1.3.0_PBE_efficiency/Zn_pbe_v1.uspp.F.UPF
     MD5 check sum: df62231357ef9e81f77b2b3087fa5675
     Pseudo is Ultrasoft, Zval = 20.0
     Generated by new atomic code, or converted to UPF format
     Using radial grid of  943 points,  6 beta functions with: 
                l(1) =   0
                l(2) =   0
                l(3) =   1
                l(4) =   1
                l(5) =   2
                l(6) =   2
     Q(r) pseudized with  8 coefficients,  rinner =    1.100   1.100   1.100
                                                       1.100   1.100

     PseudoPot. # 3 for H  read from file:
     ../SSSP_1.3.0_PBE_efficiency/H.pbe-rrkjus_psl.1.0.0.UPF
     MD5 check sum: f52b6d4d1c606e5624b1dc7b2218f220
     Pseudo is Ultrasoft, Zval =  1.0
     Generated using "atomic" code by A. Dal Corso  v.5.1
     Using radial grid of  929 points,  2 beta functions with: 
                l(1) =   0
                l(2) =   0
     Q(r) pseudized with 0 coefficients 


     atomic species   valence    mass     pseudopotential
     O                 6.00    15.99940     O ( 1.00)
     Zn               20.00    65.38000     Zn( 1.00)
     H                 1.00     1.00794     H ( 1.00)

      8 Sym. Ops. (no inversion) found


                                    s                        frac. trans.

      isym =  1     identity                                     

 cryst.   s( 1) = (     1          0          0      )
                  (     0          1          0      )
                  (     0          0          1      )

 cart.    s( 1) = (  1.0000000  0.0000000  0.0000000 )
                  (  0.0000000  1.0000000  0.0000000 )
                  (  0.0000000  0.0000000  1.0000000 )


      isym =  2     180 deg rotation - cart. axis [0,0,1]        

 cryst.   s( 2) = (    -1          0          0      )
                  (     0         -1          0      )
                  (     0          0          1      )

 cart.    s( 2) = ( -1.0000000  0.0000000  0.0000000 )
                  (  0.0000000 -1.0000000  0.0000000 )
                  (  0.0000000  0.0000000  1.0000000 )


      isym =  3      90 deg rotation - cart. axis [0,0,-1]       

 cryst.   s( 3) = (     0         -1          0      )
                  (     1          0          0      )
                  (     0          0          1      )

 cart.    s( 3) = (  0.0000000  1.0000000  0.0000000 )
                  ( -1.0000000  0.0000000  0.0000000 )
                  (  0.0000000  0.0000000  1.0000000 )


      isym =  4      90 deg rotation - cart. axis [0,0,1]        

 cryst.   s( 4) = (     0          1          0      )
                  (    -1          0          0      )
                  (     0          0          1      )

 cart.    s( 4) = (  0.0000000 -1.0000000  0.0000000 )
                  (  1.0000000  0.0000000  0.0000000 )
                  (  0.0000000  0.0000000  1.0000000 )


      isym =  5     inv. 180 deg rotation - cart. axis [0,1,0]   

 cryst.   s( 5) = (     1          0          0      )
                  (     0         -1          0      )
                  (     0          0          1      )

 cart.    s( 5) = (  1.0000000  0.0000000  0.0000000 )
                  (  0.0000000 -1.0000000  0.0000000 )
                  (  0.0000000  0.0000000  1.0000000 )


      isym =  6     inv. 180 deg rotation - cart. axis [1,0,0]   

 cryst.   s( 6) = (    -1          0          0      )
                  (     0          1          0      )
                  (     0          0          1      )

 cart.    s( 6) = ( -1.0000000  0.0000000  0.0000000 )
                  (  0.0000000  1.0000000  0.0000000 )
                  (  0.0000000  0.0000000  1.0000000 )


      isym =  7     inv. 180 deg rotation - cart. axis [1,1,0]   

 cryst.   s( 7) = (     0         -1          0      )
                  (    -1          0          0      )
                  (     0          0          1      )

 cart.    s( 7) = (  0.0000000 -1.0000000  0.0000000 )
                  ( -1.0000000  0.0000000  0.0000000 )
                  (  0.0000000  0.0000000  1.0000000 )


      isym =  8     inv. 180 deg rotation - cart. axis [1,-1,0]  

 cryst.   s( 8) = (     0          1          0      )
                  (     1          0          0      )
                  (     0          0          1      )

 cart.    s( 8) = (  0.0000000  1.0000000  0.0000000 )
                  (  1.0000000  0.0000000  0.0000000 )
                  (  0.0000000  0.0000000  1.0000000 )


   Cartesian axes

     site n.     atom                  positions (alat units)
         1        Zn     tau(   1) = (   0.0000000   0.0000000   0.0000000  )
         2        O      tau(   2) = (   0.5000000   0.5000000   0.5000000  )
         3        H      tau(   3) = (   0.5000000   0.5000000   0.9500000  )

   Crystallographic axes

     site n.     atom                  positions (cryst. coord.)
         1        Zn     tau(   1) = (  0.0000000  0.0000000  0.0000000  )
         2        O      tau(   2) = (  0.5000000  0.5000000  0.0500000  )
         3        H      tau(   3) = (  0.5000000  0.5000000  0.0950000  )

     number of k points=    28  Marzari-Vanderbilt smearing, width (Ry)=  0.0147
                       cart. coord. in units 2pi/alat
        k(    1) = (   0.0000000   0.0000000   0.0000000), wk =   0.0138889
        k(    2) = (   0.0000000   0.0833333   0.0000000), wk =   0.0555556
        k(    3) = (   0.0000000   0.1666667   0.0000000), wk =   0.0555556
        k(    4) = (   0.0000000   0.2500000   0.0000000), wk =   0.0555556
        k(    5) = (   0.0000000   0.3333333   0.0000000), wk =   0.0555556
        k(    6) = (   0.0000000   0.4166667   0.0000000), wk =   0.0555556
        k(    7) = (   0.0000000  -0.5000000   0.0000000), wk =   0.0277778
        k(    8) = (   0.0833333   0.0833333   0.0000000), wk =   0.0555556
        k(    9) = (   0.0833333   0.1666667   0.0000000), wk =   0.1111111
        k(   10) = (   0.0833333   0.2500000   0.0000000), wk =   0.1111111
        k(   11) = (   0.0833333   0.3333333   0.0000000), wk =   0.1111111
        k(   12) = (   0.0833333   0.4166667   0.0000000), wk =   0.1111111
        k(   13) = (   0.0833333  -0.5000000   0.0000000), wk =   0.0555556
        k(   14) = (   0.1666667   0.1666667   0.0000000), wk =   0.0555556
        k(   15) = (   0.1666667   0.2500000   0.0000000), wk =   0.1111111
        k(   16) = (   0.1666667   0.3333333   0.0000000), wk =   0.1111111
        k(   17) = (   0.1666667   0.4166667   0.0000000), wk =   0.1111111
        k(   18) = (   0.1666667  -0.5000000   0.0000000), wk =   0.0555556
        k(   19) = (   0.2500000   0.2500000   0.0000000), wk =   0.0555556
        k(   20) = (   0.2500000   0.3333333   0.0000000), wk =   0.1111111
        k(   21) = (   0.2500000   0.4166667   0.0000000), wk =   0.1111111
        k(   22) = (   0.2500000  -0.5000000   0.0000000), wk =   0.0555556
        k(   23) = (   0.3333333   0.3333333   0.0000000), wk =   0.0555556
        k(   24) = (   0.3333333   0.4166667   0.0000000), wk =   0.1111111
        k(   25) = (   0.3333333  -0.5000000   0.0000000), wk =   0.0555556
        k(   26) = (   0.4166667   0.4166667   0.0000000), wk =   0.0555556
        k(   27) = (   0.4166667  -0.5000000   0.0000000), wk =   0.0555556
        k(   28) = (  -0.5000000  -0.5000000   0.0000000), wk =   0.0138889

                       cryst. coord.
        k(    1) = (   0.0000000   0.0000000   0.0000000), wk =   0.0138889
        k(    2) = (   0.0000000   0.0833333   0.0000000), wk =   0.0555556
        k(    3) = (   0.0000000   0.1666667   0.0000000), wk =   0.0555556
        k(    4) = (   0.0000000   0.2500000   0.0000000), wk =   0.0555556
        k(    5) = (   0.0000000   0.3333333   0.0000000), wk =   0.0555556
        k(    6) = (   0.0000000   0.4166667   0.0000000), wk =   0.0555556
        k(    7) = (   0.0000000  -0.5000000   0.0000000), wk =   0.0277778
        k(    8) = (   0.0833333   0.0833333   0.0000000), wk =   0.0555556
        k(    9) = (   0.0833333   0.1666667   0.0000000), wk =   0.1111111
        k(   10) = (   0.0833333   0.2500000   0.0000000), wk =   0.1111111
        k(   11) = (   0.0833333   0.3333333   0.0000000), wk =   0.1111111
        k(   12) = (   0.0833333   0.4166667   0.0000000), wk =   0.1111111
        k(   13) = (   0.0833333  -0.5000000   0.0000000), wk =   0.0555556
        k(   14) = (   0.1666667   0.1666667   0.0000000), wk =   0.0555556
        k(   15) = (   0.1666667   0.2500000   0.0000000), wk =   0.1111111
        k(   16) = (   0.1666667   0.3333333   0.0000000), wk =   0.1111111
        k(   17) = (   0.1666667   0.4166667   0.0000000), wk =   0.1111111
        k(   18) = (   0.1666667  -0.5000000   0.0000000), wk =   0.0555556
        k(   19) = (   0.2500000   0.2500000   0.0000000), wk =   0.0555556
        k(   20) = (   0.2500000   0.3333333   0.0000000), wk =   0.1111111
        k(   21) = (   0.2500000   0.4166667   0.0000000), wk =   0.1111111
        k(   22) = (   0.2500000  -0.5000000   0.0000000), wk =   0.0555556
        k(   23) = (   0.3333333   0.3333333   0.0000000), wk =   0.0555556
        k(   24) = (   0.3333333   0.4166667   0.0000000), wk =   0.1111111
        k(   25) = (   0.3333333  -0.5000000   0.0000000), wk =   0.0555556
        k(   26) = (   0.4166667   0.4166667   0.0000000), wk =   0.0555556
        k(   27) = (   0.4166667  -0.5000000   0.0000000), wk =   0.0555556
        k(   28) = (  -0.5000000  -0.5000000   0.0000000), wk =   0.0138889

     Dense  grid:   177743 G-vectors     FFT dimensions: (  36,  36, 324)

     Smooth grid:    63081 G-vectors     FFT dimensions: (  24,  24, 240)

     Dynamical RAM for                 wfc:       2.16 MB

     Dynamical RAM for     wfc (w. buffer):      62.60 MB

     Dynamical RAM for           str. fact:       8.14 MB

     Dynamical RAM for           local pot:       0.00 MB

     Dynamical RAM for          nlocal pot:       3.36 MB

     Dynamical RAM for                qrad:       4.82 MB

     Dynamical RAM for          rho,v,vnew:      17.75 MB

     Dynamical RAM for               rhoin:       5.92 MB

     Dynamical RAM for            rho*nmix:      43.39 MB

     Dynamical RAM for           G-vectors:      10.65 MB

     Dynamical RAM for          h,s,v(r/c):       0.06 MB

     Dynamical RAM for          <psi|beta>:       0.01 MB

     Dynamical RAM for                 psi:       4.32 MB

     Dynamical RAM for                hpsi:       4.32 MB

     Dynamical RAM for                spsi:       4.32 MB

     Dynamical RAM for      wfcinit/wfcrot:       4.32 MB

     Dynamical RAM for           addusdens:     507.17 MB

     Dynamical RAM for          addusforce:     508.53 MB

     Dynamical RAM for         addusstress:     545.14 MB

     Estimated static dynamical RAM per process >     140.09 MB

     Estimated max dynamical RAM per process >     728.62 MB

     Initial potential from superposition of free atoms

     starting charge      26.9998, renormalised to      27.0000

     negative rho (up, down):  1.369E-04 0.000E+00
     Starting wfcs are   18 randomized atomic wfcs
     Checking if some PAW data can be deallocated... 

     total cpu time spent up to now is        4.0 secs

     Self-consistent Calculation

     iteration #  1     ecut=    50.00 Ry     beta= 0.40
     Davidson diagonalization with overlap

---- Real-time Memory Report at c_bands before calling an iterative solver
           613 MiB given to the printing process from OS
             0 MiB allocation reported by mallinfo(arena+hblkhd)
          5307 MiB available memory on the node where the printing process lives
------------------
     ethr =  1.00E-02,  avg # of iterations =  6.1

     negative rho (up, down):  7.337E-05 0.000E+00

     total cpu time spent up to now is       13.5 secs

     total energy              =    -504.08207368 Ry
     estimated scf accuracy    <       0.59654044 Ry

     iteration #  2     ecut=    50.00 Ry     beta= 0.40
     Davidson diagonalization with overlap

---- Real-time Memory Report at c_bands before calling an iterative solver
           701 MiB given to the printing process from OS
             0 MiB allocation reported by mallinfo(arena+hblkhd)
          5283 MiB available memory on the node where the printing process lives
------------------
     ethr =  2.21E-03,  avg # of iterations =  4.3

     negative rho (up, down):  6.562E-05 0.000E+00

     total cpu time spent up to now is       24.5 secs

     total energy              =    -504.09278154 Ry
     estimated scf accuracy    <       0.85668306 Ry

     iteration #  3     ecut=    50.00 Ry     beta= 0.40
     Davidson diagonalization with overlap

---- Real-time Memory Report at c_bands before calling an iterative solver
           703 MiB given to the printing process from OS
             0 MiB allocation reported by mallinfo(arena+hblkhd)
          5280 MiB available memory on the node where the printing process lives
------------------
     ethr =  2.21E-03,  avg # of iterations =  2.8

     negative rho (up, down):  8.216E-05 0.000E+00

     total cpu time spent up to now is       33.6 secs

     total energy              =    -504.27091467 Ry
     estimated scf accuracy    <       0.15133483 Ry

     iteration #  4     ecut=    50.00 Ry     beta= 0.40
     Davidson diagonalization with overlap

---- Real-time Memory Report at c_bands before calling an iterative solver
           706 MiB given to the printing process from OS
             0 MiB allocation reported by mallinfo(arena+hblkhd)
          5278 MiB available memory on the node where the printing process lives
------------------
     ethr =  5.60E-04,  avg # of iterations =  1.7

     negative rho (up, down):  1.027E-04 0.000E+00

     total cpu time spent up to now is       42.3 secs

     total energy              =    -504.26746989 Ry
     estimated scf accuracy    <       0.03763785 Ry

     iteration #  5     ecut=    50.00 Ry     beta= 0.40
     Davidson diagonalization with overlap

---- Real-time Memory Report at c_bands before calling an iterative solver
           707 MiB given to the printing process from OS
             0 MiB allocation reported by mallinfo(arena+hblkhd)
          5277 MiB available memory on the node where the printing process lives
------------------
     ethr =  1.39E-04,  avg # of iterations =  4.5

     negative rho (up, down):  1.193E-04 0.000E+00

     total cpu time spent up to now is       52.4 secs

     total energy              =    -504.27156768 Ry
     estimated scf accuracy    <       0.00164411 Ry

     iteration #  6     ecut=    50.00 Ry     beta= 0.40
     Davidson diagonalization with overlap

---- Real-time Memory Report at c_bands before calling an iterative solver
           709 MiB given to the printing process from OS
             0 MiB allocation reported by mallinfo(arena+hblkhd)
          5273 MiB available memory on the node where the printing process lives
------------------
     ethr =  6.09E-06,  avg # of iterations =  6.7

     negative rho (up, down):  1.276E-04 0.000E+00

     total cpu time spent up to now is       63.4 secs

     total energy              =    -504.27160089 Ry
     estimated scf accuracy    <       0.00261395 Ry

     iteration #  7     ecut=    50.00 Ry     beta= 0.40
     Davidson diagonalization with overlap

---- Real-time Memory Report at c_bands before calling an iterative solver
           711 MiB given to the printing process from OS
             0 MiB allocation reported by mallinfo(arena+hblkhd)
          5272 MiB available memory on the node where the printing process lives
------------------
     ethr =  6.09E-06,  avg # of iterations =  2.0

     negative rho (up, down):  1.341E-04 0.000E+00

     total cpu time spent up to now is       71.7 secs

     total energy              =    -504.27189414 Ry
     estimated scf accuracy    <       0.00002776 Ry

     iteration #  8     ecut=    50.00 Ry     beta= 0.40
     Davidson diagonalization with overlap

---- Real-time Memory Report at c_bands before calling an iterative solver
           713 MiB given to the printing process from OS
             0 MiB allocation reported by mallinfo(arena+hblkhd)
          5268 MiB available memory on the node where the printing process lives
------------------
     ethr =  1.03E-07,  avg # of iterations =  2.2

     negative rho (up, down):  1.370E-04 0.000E+00

     total cpu time spent up to now is       81.7 secs

     total energy              =    -504.27188376 Ry
     estimated scf accuracy    <       0.00004141 Ry

     iteration #  9     ecut=    50.00 Ry     beta= 0.40
     Davidson diagonalization with overlap

---- Real-time Memory Report at c_bands before calling an iterative solver
           715 MiB given to the printing process from OS
             0 MiB allocation reported by mallinfo(arena+hblkhd)
          5265 MiB available memory on the node where the printing process lives
------------------
     ethr =  1.03E-07,  avg # of iterations =  2.2

     negative rho (up, down):  1.389E-04 0.000E+00

     total cpu time spent up to now is       90.1 secs

     total energy              =    -504.27189281 Ry
     estimated scf accuracy    <       0.00000308 Ry

     iteration # 10     ecut=    50.00 Ry     beta= 0.40
     Davidson diagonalization with overlap

---- Real-time Memory Report at c_bands before calling an iterative solver
           717 MiB given to the printing process from OS
             0 MiB allocation reported by mallinfo(arena+hblkhd)
          5259 MiB available memory on the node where the printing process lives
------------------
     ethr =  1.14E-08,  avg # of iterations =  1.7

     negative rho (up, down):  1.398E-04 0.000E+00

     total cpu time spent up to now is       98.1 secs

     total energy              =    -504.27189327 Ry
     estimated scf accuracy    <       0.00000010 Ry

     iteration # 11     ecut=    50.00 Ry     beta= 0.40
     Davidson diagonalization with overlap

---- Real-time Memory Report at c_bands before calling an iterative solver
           717 MiB given to the printing process from OS
             0 MiB allocation reported by mallinfo(arena+hblkhd)
          5266 MiB available memory on the node where the printing process lives
------------------
     ethr =  3.62E-10,  avg # of iterations =  2.4

     negative rho (up, down):  1.403E-04 0.000E+00

     total cpu time spent up to now is      107.3 secs

     total energy              =    -504.27189328 Ry
     estimated scf accuracy    <       0.00000013 Ry

     iteration # 12     ecut=    50.00 Ry     beta= 0.40
     Davidson diagonalization with overlap

---- Real-time Memory Report at c_bands before calling an iterative solver
           717 MiB given to the printing process from OS
             0 MiB allocation reported by mallinfo(arena+hblkhd)
          5263 MiB available memory on the node where the printing process lives
------------------
     ethr =  3.62E-10,  avg # of iterations =  1.9

     negative rho (up, down):  1.411E-04 0.000E+00

     total cpu time spent up to now is      116.1 secs

     End of self-consistent calculation

          k = 0.0000 0.0000 0.0000 (  7831 PWs)   bands (ev):

  -127.6947 -81.8755 -81.8755 -81.8241 -20.4323 -10.1414  -9.2691  -8.4305
    -8.4305  -8.3321  -8.2874  -5.3779  -2.7836  -2.7836  -0.8585   1.1364
     1.5297   1.7369

     occupation numbers 
     1.0000   1.0000   1.0000   1.0000   1.0000   1.0000   1.0000   1.0000
     1.0000   1.0000   1.0000   1.0000   1.0008   1.0008   0.0000   0.0000
     0.0000   0.0000

          k = 0.0000 0.0833 0.0000 (  7841 PWs)   bands (ev):

  -127.6947 -81.8766 -81.8754 -81.8240 -20.3877 -10.0537  -9.2415  -8.4782
    -8.4263  -8.3132  -8.3101  -5.2811  -3.0878  -2.7563  -0.7004   1.2935
     1.6781   1.8776

     occupation numbers 
     1.0000   1.0000   1.0000   1.0000   1.0000   1.0000   1.0000   1.0000
     1.0000   1.0000   1.0000   1.0000   1.0000   1.0016   0.0000   0.0000
     0.0000   0.0000

          k = 0.0000 0.1667 0.0000 (  7857 PWs)   bands (ev):

  -127.6945 -81.8798 -81.8752 -81.8238 -20.2628  -9.8171  -9.1602  -8.5767
    -8.4228  -8.3628  -8.2785  -5.0928  -3.6758  -2.6822  -0.3167   1.7422
     2.1069   2.2995

     occupation numbers 
     1.0000   1.0000   1.0000   1.0000   1.0000   1.0000   1.0000   1.0000
     1.0000   1.0000   1.0000   1.0000   1.0000   1.0069   0.0000   0.0000
     0.0000   0.0000

          k = 0.0000 0.2500 0.0000 (  7881 PWs)   bands (ev):

  -127.6942 -81.8840 -81.8749 -81.8235 -20.0845  -9.5288  -9.0358  -8.6466
    -8.4770  -8.3738  -8.2340  -5.3059  -3.7475  -2.5816   0.2064   2.4578
     2.7881   2.9995

     occupation numbers 
     1.0000   1.0000   1.0000   1.0000   1.0000   1.0000   1.0000   1.0000
     1.0000   1.0000   1.0000   1.0000   1.0000   1.0317   0.0000   0.0000
     0.0000   0.0000

          k = 0.0000 0.3333 0.0000 (  7882 PWs)   bands (ev):

  -127.6939 -81.8883 -81.8747 -81.8231 -19.8960  -9.3347  -8.9719  -8.5631
    -8.5568  -8.3568  -8.1345  -5.9176  -3.1034  -2.4814   0.7303   3.2701
     3.5065   3.7544

     occupation numbers 
     1.0000   1.0000   1.0000   1.0000   1.0000   1.0000   1.0000   1.0000
     1.0000   1.0000   1.0000   1.0000   1.0000   1.0755   0.0000   0.0000
     0.0000   0.0000

          k = 0.0000 0.4167 0.0000 (  7900 PWs)   bands (ev):

  -127.6937 -81.8914 -81.8745 -81.8229 -19.7507  -9.2613  -8.9837  -8.6157
    -8.4870  -8.3423  -7.8878  -6.4287  -2.4081  -2.1232   0.4952   2.5472
     4.4736   4.8887

     occupation numbers 
     1.0000   1.0000   1.0000   1.0000   1.0000   1.0000   1.0000   1.0000
     1.0000   1.0000   1.0000   1.0000   1.0756   0.2882   0.0000   0.0000
     0.0000   0.0000

          k = 0.0000-0.5000 0.0000 (  7920 PWs)   bands (ev):

  -127.6936 -81.8926 -81.8744 -81.8228 -19.6959  -9.2478  -8.9890  -8.6372
    -8.4832  -8.3368  -7.7233  -6.6428  -2.3813  -1.1634  -0.4955   2.7103
     4.5701   5.9046

     occupation numbers 
     1.0000   1.0000   1.0000   1.0000   1.0000   1.0000   1.0000   1.0000
     1.0000   1.0000   1.0000   1.0000   1.0555   0.0000   0.0000   0.0000
     0.0000   0.0000

          k = 0.0833 0.0833 0.0000 (  7870 PWs)   bands (ev):

  -127.6946 -81.8766 -81.8766 -81.8240 -20.3436  -9.9677  -9.2138  -8.4841
    -8.4610  -8.3405  -8.2860  -5.1965  -3.1244  -2.9608  -0.5550   1.4474
     1.8246   2.0184

     occupation numbers 
     1.0000   1.0000   1.0000   1.0000   1.0000   1.0000   1.0000   1.0000
     1.0000   1.0000   1.0000   1.0000   1.0000   1.0000   0.0000   0.0000
     0.0000   0.0000

          k = 0.0833 0.1667 0.0000 (  7854 PWs)   bands (ev):

  -127.6944 -81.8797 -81.8763 -81.8237 -20.2200  -9.7375  -9.1329  -8.5704
    -8.4652  -8.3983  -8.2404  -5.0483  -3.5998  -2.9197  -0.1863   1.8910
     2.2487   2.4407

     occupation numbers 
     1.0000   1.0000   1.0000   1.0000   1.0000   1.0000   1.0000   1.0000
     1.0000   1.0000   1.0000   1.0000   1.0000   1.0000   0.0000   0.0000
     0.0000   0.0000

          k = 0.0833 0.2500 0.0000 (  7876 PWs)   bands (ev):

  -127.6941 -81.8839 -81.8761 -81.8234 -20.0437  -9.4609  -9.0155  -8.6447
    -8.5102  -8.4168  -8.1722  -5.2790  -3.6634  -2.7742   0.3304   2.6035
     2.9238   3.1415

     occupation numbers 
     1.0000   1.0000   1.0000   1.0000   1.0000   1.0000   1.0000   1.0000
     1.0000   1.0000   1.0000   1.0000   1.0000   1.0010   0.0000   0.0000
     0.0000   0.0000

          k = 0.0833 0.3333 0.0000 (  7864 PWs)   bands (ev):

  -127.6938 -81.8881 -81.8758 -81.8230 -19.8574  -9.2712  -8.9672  -8.6583
    -8.5155  -8.4039  -8.0263  -5.8640  -3.1427  -2.5507   0.8618   3.3999
     3.6243   3.8914

     occupation numbers 
     1.0000   1.0000   1.0000   1.0000   1.0000   1.0000   1.0000   1.0000
     1.0000   1.0000   1.0000   1.0000   1.0000   1.0447   0.0000   0.0000
     0.0000   0.0000

          k = 0.0833 0.4167 0.0000 (  7894 PWs)   bands (ev):

  -127.6936 -81.8913 -81.8756 -81.8228 -19.7138  -9.1899  -8.9876  -8.7070
    -8.4874  -8.3765  -7.7562  -6.3576  -2.7466  -1.9029   0.6615   2.6227
     4.6084   5.0216

     occupation numbers 
     1.0000   1.0000   1.0000   1.0000   1.0000   1.0000   1.0000   1.0000
     1.0000   1.0000   1.0000   1.0000   1.0019   0.0102   0.0000   0.0000
     0.0000   0.0000

          k = 0.0833-0.5000 0.0000 (  7904 PWs)   bands (ev):

  -127.6935 -81.8925 -81.8755 -81.8227 -19.6596  -9.1720  -8.9955  -8.7296
    -8.4934  -8.3633  -7.5906  -6.5667  -2.6682  -1.0490  -0.2739   2.7788
     4.7109   5.9753

     occupation numbers 
     1.0000   1.0000   1.0000   1.0000   1.0000   1.0000   1.0000   1.0000
     1.0000   1.0000   1.0000   1.0000   1.0089   0.0000   0.0000   0.0000
     0.0000   0.0000

          k = 0.1667 0.1667 0.0000 (  7864 PWs)   bands (ev):

  -127.6942 -81.8795 -81.8794 -81.8234 -20.1003  -9.5322  -9.0522  -8.5618
    -8.5456  -8.4796  -8.1577  -5.0008  -3.4253  -3.3518   0.1634   2.3264
     2.6613   2.8645

     occupation numbers 
     1.0000   1.0000   1.0000   1.0000   1.0000   1.0000   1.0000   1.0000
     1.0000   1.0000   1.0000   1.0000   1.0000   1.0000   0.0000   0.0000
     0.0000   0.0000

          k = 0.1667 0.2500 0.0000 (  7859 PWs)   bands (ev):

  -127.6939 -81.8837 -81.8792 -81.8231 -19.9295  -9.3077  -8.9437  -8.6468
    -8.5539  -8.5234  -8.0238  -5.2250  -3.6563  -2.9700   0.6731   3.0323
     3.3211   3.5673

     occupation numbers 
     1.0000   1.0000   1.0000   1.0000   1.0000   1.0000   1.0000   1.0000
     1.0000   1.0000   1.0000   1.0000   1.0000   1.0000   0.0000   0.0000
     0.0000   0.0000

          k = 0.1667 0.3333 0.0000 (  7846 PWs)   bands (ev):

  -127.6936 -81.8879 -81.8788 -81.8228 -19.7493  -9.1619  -8.9207  -8.7438
    -8.5332  -8.4769  -7.7858  -5.7209  -3.5443  -2.3638   1.2253   3.7429
     3.9964   4.2876

     occupation numbers 
     1.0000   1.0000   1.0000   1.0000   1.0000   1.0000   1.0000   1.0000
     1.0000   1.0000   1.0000   1.0000   1.0000   1.0344   0.0000   0.0000
     0.0000   0.0000

          k = 0.1667 0.4167 0.0000 (  7870 PWs)   bands (ev):

  -127.6934 -81.8910 -81.8786 -81.8226 -19.6107  -9.0864  -8.9545  -8.8247
    -8.5503  -8.4018  -7.4720  -6.1629  -3.3771  -1.5068   1.1071   2.8370
     5.0049   5.4036

     occupation numbers 
     1.0000   1.0000   1.0000   1.0000   1.0000   1.0000   1.0000   1.0000
     1.0000   1.0000   1.0000   1.0000   1.0000   0.0000   0.0000   0.0000
     0.0000   0.0000

          k = 0.1667-0.5000 0.0000 (  7874 PWs)   bands (ev):

  -127.6933 -81.8922 -81.8785 -81.8225 -19.5584  -9.0613  -8.9690  -8.8598
    -8.5621  -8.3788  -7.3018  -6.3552  -3.3091  -0.7097   0.2387   2.9754
     5.1272   6.1393

     occupation numbers 
     1.0000   1.0000   1.0000   1.0000   1.0000   1.0000   1.0000   1.0000
     1.0000   1.0000   1.0000   1.0000   1.0000   0.0000   0.0000   0.0000
     0.0000   0.0000

          k = 0.2500 0.2500 0.0000 (  7842 PWs)   bands (ev):

  -127.6936 -81.8834 -81.8832 -81.8228 -19.7669  -9.2064  -8.8165  -8.6537
    -8.6473  -8.5478  -7.7937  -5.2602  -4.0263  -2.5545   1.1840   3.7270
     3.9599   4.2737

     occupation numbers 
     1.0000   1.0000   1.0000   1.0000   1.0000   1.0000   1.0000   1.0000
     1.0000   1.0000   1.0000   1.0000   1.0000   1.0431   0.0000   0.0000
     0.0000   0.0000

          k = 0.2500 0.3333 0.0000 (  7834 PWs)   bands (ev):

  -127.6933 -81.8875 -81.8830 -81.8225 -19.5957  -9.1948  -8.8076  -8.7308
    -8.6191  -8.4658  -7.4729  -5.5385  -4.1567  -1.8449   1.7647   4.1776
     4.6420   4.8965

     occupation numbers 
     1.0000   1.0000   1.0000   1.0000   1.0000   1.0000   1.0000   1.0000
     1.0000   1.0000   1.0000   1.0000   1.0000   0.0029   0.0000   0.0000
     0.0000   0.0000

          k = 0.2500 0.4167 0.0000 (  7841 PWs)   bands (ev):

  -127.6931 -81.8907 -81.8827 -81.8222 -19.4643  -9.2125  -8.8734  -8.7612
    -8.6078  -8.3770  -7.1384  -5.8831  -4.0812  -0.9349   1.7564   3.1499
     5.6173   5.8912

     occupation numbers 
     1.0000   1.0000   1.0000   1.0000   1.0000   1.0000   1.0000   1.0000
     1.0000   1.0000   1.0000   1.0000   1.0000   0.0000   0.0000   0.0000
     0.0000   0.0000

          k = 0.2500-0.5000 0.0000 (  7850 PWs)   bands (ev):

  -127.6930 -81.8918 -81.8827 -81.8221 -19.4148  -9.2220  -8.8984  -8.7771
    -8.6054  -8.3468  -6.9758  -6.0425  -4.0300  -0.1549   0.9155   3.2687
     5.7496   6.2583

     occupation numbers 
     1.0000   1.0000   1.0000   1.0000   1.0000   1.0000   1.0000   1.0000
     1.0000   1.0000   1.0000   1.0000   1.0000   0.0000   0.0000   0.0000
     0.0000   0.0000

          k = 0.3333 0.3333 0.0000 (  7832 PWs)   bands (ev):

  -127.6930 -81.8873 -81.8871 -81.8221 -19.4344  -9.2822  -8.8281  -8.7963
    -8.4516  -8.4469  -7.1215  -5.4382  -4.6131  -1.1040   2.3918   4.2619
     5.1717   5.6193

     occupation numbers 
     1.0000   1.0000   1.0000   1.0000   1.0000   1.0000   1.0000   1.0000
     1.0000   1.0000   1.0000   1.0000   1.0000   0.0000   0.0000   0.0000
     0.0000   0.0000

          k = 0.3333 0.4167 0.0000 (  7838 PWs)   bands (ev):

  -127.6928 -81.8903 -81.8869 -81.8219 -19.3109  -9.3480  -8.8940  -8.8372
    -8.4334  -8.3064  -6.8114  -5.5706  -4.6922  -0.1739   2.5435   3.4589
     5.4065   6.4278

     occupation numbers 
     1.0000   1.0000   1.0000   1.0000   1.0000   1.0000   1.0000   1.0000
     1.0000   1.0000   1.0000   1.0000   1.0000   0.0000   0.0000   0.0000
     0.0000   0.0000

          k = 0.3333-0.5000 0.0000 (  7856 PWs)   bands (ev):

  -127.6928 -81.8914 -81.8869 -81.8218 -19.2644  -9.3715  -8.9212  -8.8531
    -8.4280  -8.2577  -6.6764  -5.6787  -4.6575   0.6062   1.7065   3.5869
     5.5118   6.8021

     occupation numbers 
     1.0000   1.0000   1.0000   1.0000   1.0000   1.0000   1.0000   1.0000
     1.0000   1.0000   1.0000   1.0000   1.0000   0.0000   0.0000   0.0000
     0.0000   0.0000

          k = 0.4167 0.4167 0.0000 (  7842 PWs)   bands (ev):

  -127.6926 -81.8901 -81.8900 -81.8217 -19.1935  -9.4368  -8.9250  -8.9144
    -8.3716  -8.1657  -6.5572  -5.3473  -5.0586   0.7668   3.2765   3.3655
     4.3840   6.6405

     occupation numbers 
     1.0000   1.0000   1.0000   1.0000   1.0000   1.0000   1.0000   1.0000
     1.0000   1.0000   1.0000   1.0000   1.0000   0.0000   0.0000   0.0000
     0.0000   0.0000

          k = 0.4167-0.5000 0.0000 (  7830 PWs)   bands (ev):

  -127.6926 -81.8911 -81.8899 -81.8216 -19.1494  -9.4671  -8.9490  -8.9336
    -8.3597  -8.1055  -6.4563  -5.3623  -5.0811   1.5713   2.5035   3.7837
     4.1777   6.6093

     occupation numbers 
     1.0000   1.0000   1.0000   1.0000   1.0000   1.0000   1.0000   1.0000
     1.0000   1.0000   1.0000   1.0000   1.0000   0.0000   0.0000   0.0000
     0.0000   0.0000

          k =-0.5000-0.5000 0.0000 (  7904 PWs)   bands (ev):

  -127.6925 -81.8911 -81.8911 -81.8215 -19.1062  -9.4993  -8.9629  -8.9629
    -8.3454  -8.0399  -6.3717  -5.2325  -5.2325   2.6052   2.9380   2.9380
     3.7750   6.4602

     occupation numbers 
     1.0000   1.0000   1.0000   1.0000   1.0000   1.0000   1.0000   1.0000
     1.0000   1.0000   1.0000   1.0000   1.0000   0.0000   0.0000   0.0000
     0.0000   0.0000

     the Fermi energy is    -2.1586 ev

!    total energy              =    -504.27189330 Ry
     estimated scf accuracy    <          2.4E-09 Ry
     smearing contrib. (-TS)   =       0.00071213 Ry
     internal energy E=F+TS    =    -504.27260543 Ry

     The total energy is F=E-TS. E is the sum of the following terms:
     one-electron contribution =   -2827.73990184 Ry
     hartree contribution      =    1412.99183918 Ry
     xc contribution           =     -50.10322015 Ry
     ewald contribution        =     970.10917457 Ry
     one-center paw contrib.   =      -9.53049717 Ry
      -> PAW hartree energy AE =      25.35041666 Ry
      -> PAW hartree energy PS =     -25.23655223 Ry
      -> PAW xc energy AE      =     -16.55497635 Ry
      -> PAW xc energy PS      =       6.91061474 Ry
      -> total E_H with PAW    =    1413.10570361 Ry
      -> total E_XC with PAW   =     -59.74758175 Ry

     convergence has been achieved in  12 iterations

     negative rho (up, down):  1.411E-04 0.000E+00

     Forces acting on atoms (cartesian axes, Ry/au):

     atom    1 type  2   force =     0.00000000    0.00000000    0.08513754
     atom    2 type  1   force =     0.00000000    0.00000000    0.11138808
     atom    3 type  3   force =     0.00000000    0.00000000   -0.19652562
     The non-local contrib.  to forces
     atom    1 type  2   force =     0.00000000    0.00000000   -0.32119869
     atom    2 type  1   force =     0.00000000    0.00000000    1.10528436
     atom    3 type  3   force =     0.00000000    0.00000000   -0.04403622
     The ionic contribution  to forces
     atom    1 type  2   force =    -0.00000000   -0.00000000  -52.94468092
     atom    2 type  1   force =     0.00000000    0.00000000   41.51987842
     atom    3 type  3   force =    -0.00000000   -0.00000000   11.42480250
     The local contribution  to forces
     atom    1 type  2   force =     0.00000000    0.00000000   53.35064841
     atom    2 type  1   force =     0.00000000    0.00000000  -42.49984392
     atom    3 type  3   force =     0.00000000    0.00000000  -11.57724461
     The core correction contribution to forces
     atom    1 type  2   force =     0.00000000    0.00000000    0.00000000
     atom    2 type  1   force =     0.00000000    0.00000000   -0.01397582
     atom    3 type  3   force =     0.00000000    0.00000000    0.00000000
     The Hubbard contrib.    to forces
     atom    1 type  2   force =     0.00000000    0.00000000    0.00000000
     atom    2 type  1   force =     0.00000000    0.00000000    0.00000000
     atom    3 type  3   force =     0.00000000    0.00000000    0.00000000
     The SCF correction term to forces
     atom    1 type  2   force =    -0.00000000    0.00000000    0.00041678
     atom    2 type  1   force =     0.00000000   -0.00000000    0.00009308
     atom    3 type  3   force =     0.00000000   -0.00000000    0.00000074

     Total force =     0.241408     Total SCF correction =     0.000427


     Computing stress (Cartesian axis) and pressure


     negative rho (up, down):  1.411E-04 0.000E+00
          total   stress  (Ry/bohr**3)                   (kbar)     P=      -20.69
   0.00004476   0.00000000   0.00000000            6.58        0.00        0.00
   0.00000000   0.00004476   0.00000000            0.00        6.58        0.00
   0.00000000   0.00000000  -0.00051155            0.00        0.00      -75.25

     kinetic stress (kbar)   4370.40      0.00      0.00
                                0.00   4370.40      0.00
                                0.00      0.00   4133.42

     local   stress (kbar)-274042.98     -0.00      0.00
                               -0.00-274042.98     -0.00
                                0.00     -0.00 274435.65

     nonloc. stress (kbar)    -84.43      0.00      0.00
                                0.00    -84.43      0.00
                                0.00      0.00    -85.06

     hartree stress (kbar) 143149.41     -0.00     -0.00
                               -0.00 143149.41     -0.00
                               -0.00     -0.00-128386.77

     exc-cor stress (kbar)  -1739.62      0.00     -0.00
                                0.00  -1739.62      0.00
                               -0.00      0.00  -1739.33

     corecor stress (kbar)    -47.70     -0.00     -0.00
                               -0.00    -47.70      0.00
                               -0.00      0.00    -46.85

     ewald   stress (kbar) 128401.51      0.00      0.00
                                0.00 128401.51      0.00
                                0.00      0.00-148386.32

     hubbard stress (kbar)      0.00      0.00      0.00
                                0.00      0.00      0.00
                                0.00      0.00      0.00

     DFT-D   stress (kbar)      0.00      0.00      0.00
                                0.00      0.00      0.00
                                0.00      0.00      0.00

     XDM     stress (kbar)      0.00      0.00      0.00
                                0.00      0.00      0.00
                                0.00      0.00      0.00

     dft-nl  stress (kbar)      0.00      0.00      0.00
                                0.00      0.00      0.00
                                0.00      0.00      0.00

     TS-vdW  stress (kbar)      0.00      0.00      0.00
                                0.00      0.00      0.00
                                0.00      0.00      0.00

     MDB     stress (kbar)      0.00      0.00      0.00
                                0.00      0.00      0.00
                                0.00      0.00      0.00

     3D-RISM stress (kbar)      0.00      0.00      0.00
                                0.00      0.00      0.00
                                0.00      0.00      0.00


     Writing all to output data dir ./temp_cubic/aiida.save/ :
     XML data file, charge density, pseudopotentials, collected wavefunctions

     init_run     :     64.57s CPU      3.56s WALL (       1 calls)
     electrons    :   2173.82s CPU    112.17s WALL (       1 calls)
     forces       :     21.75s CPU      1.38s WALL (       1 calls)
     stress       :     32.35s CPU      4.04s WALL (       1 calls)

     Called by init_run:
     wfcinit      :     59.70s CPU      2.71s WALL (       1 calls)
     wfcinit:atom :      0.54s CPU      0.03s WALL (      28 calls)
     wfcinit:wfcr :     56.33s CPU      2.48s WALL (      28 calls)
     potinit      :      1.41s CPU      0.13s WALL (       1 calls)
     hinit0       :      1.58s CPU      0.28s WALL (       1 calls)

     Called by electrons:
     c_bands      :   1824.18s CPU     88.07s WALL (      12 calls)
     sum_band     :    307.48s CPU     17.93s WALL (      12 calls)
     v_of_rho     :     11.77s CPU      0.99s WALL (      13 calls)
     v_h          :      1.95s CPU      0.15s WALL (      13 calls)
     v_xc         :     11.21s CPU      0.98s WALL (      15 calls)
     newd         :     17.37s CPU      4.82s WALL (      13 calls)
     PAW_pot      :      6.18s CPU      0.26s WALL (      13 calls)
     mix_rho      :      4.68s CPU      0.26s WALL (      12 calls)

     Called by c_bands:
     init_us_2    :     17.48s CPU      1.24s WALL (     756 calls)
     cegterg      :   1798.85s CPU     86.44s WALL (     336 calls)

     Called by sum_band:
     sum_band:wei :      0.15s CPU      0.00s WALL (      12 calls)
     sum_band:loo :    296.56s CPU     12.46s WALL (      12 calls)
     sum_band:buf :      2.04s CPU      0.08s WALL (     336 calls)
     sum_band:ini :      7.72s CPU      0.49s WALL (     336 calls)
     sum_band:cal :     54.64s CPU      1.98s WALL (     336 calls)
     sum_band:bec :      6.51s CPU      0.30s WALL (     336 calls)
     addusdens    :      9.49s CPU      5.23s WALL (      12 calls)
                                        0.00s GPU  (      12 calls)
     addusd:skk   :      0.01s CPU      0.01s WALL (      36 calls)
                                        0.00s GPU  (      36 calls)

     Called by *egterg:
     cdiaghg      :      7.84s CPU      0.38s WALL (    1417 calls)
     cegterg:over :    107.42s CPU      5.58s WALL (    1081 calls)
     cegterg:upda :     50.85s CPU      4.20s WALL (    1081 calls)
     cegterg:last :     52.84s CPU      6.94s WALL (     677 calls)
     h_psi        :   1460.61s CPU     62.38s WALL (    1445 calls)
     s_psi        :     89.58s CPU      4.89s WALL (    1445 calls)
     g_psi        :      9.46s CPU      0.53s WALL (    1081 calls)

     Called by h_psi:
     h_psi:calbec :    134.84s CPU      5.02s WALL (    1445 calls)
     vloc_psi     :   1197.70s CPU     51.70s WALL (    1445 calls)
     add_vuspsi   :    112.81s CPU      4.89s WALL (    1445 calls)

     General routines
     calbec       :    209.62s CPU      7.76s WALL (    1921 calls)
     fft          :     13.15s CPU      0.95s WALL (     192 calls)
     ffts         :      0.74s CPU      0.05s WALL (      25 calls)
     fftw         :    840.95s CPU     36.09s WALL (   36242 calls)
     interpolate  :      2.78s CPU      0.11s WALL (      13 calls)

     Parallel routines

     PAW routines
     PAW_pot      :      6.18s CPU      0.26s WALL (      13 calls)
     PAW_symme    :      0.00s CPU      0.00s WALL (      25 calls)

     PWSCF        :  38m22.95s CPU   2m 2.46s WALL


   This run was terminated on:  20:56:58  14Jun2024            

=------------------------------------------------------------------------------=
   JOB DONE.
=------------------------------------------------------------------------------=
