
     Program PWSCF v.7.3.1 starts on 14Jun2024 at 21: 4:20 

     This program is part of the open-source Quantum ESPRESSO suite
     for quantum simulation of materials; please cite
         "P. Giannozzi et al., J. Phys.:Condens. Matter 21 395502 (2009);
         "P. Giannozzi et al., J. Phys.:Condens. Matter 29 465901 (2017);
         "P. Giannozzi et al., J. Chem. Phys. 152 154105 (2020);
          URL http://www.quantum-espresso.org", 
     in publications or presentations arising from this work. More details at
     http://www.quantum-espresso.org/quote

     Parallel version (MPI & OpenMP), running on      24 processor cores
     Number of MPI processes:                 1
     Threads/MPI process:                    24

     MPI processes distributed on     1 nodes
     5441 MiB available memory on the printing compute node when the environment starts

     Waiting for input...
     Reading input from standard input

     Current dimensions of program PWSCF are:
     Max number of different atomic species (ntypx) = 10
     Max number of k-points (npk) =  40000
     Max angular momentum in pseudopotentials (lmaxx) =  4
     file O.pbe-n-kjpaw_psl.0.1.UPF: wavefunction(s)  2P renormalized
     Message from routine setup:
     using ibrav=0 with symmetry is DISCOURAGED, use correct ibrav instead

     Subspace diagonalization in iterative solution of the eigenvalue problem:
     a serial algorithm will be used


     G-vector sticks info
     --------------------
     sticks:   dense  smooth     PW     G-vecs:    dense   smooth      PW
     Sum         829     421    137               177743    63081   11257

     Using Slab Decomposition



     bravais-lattice index     =            0
     lattice parameter (alat)  =       5.0869  a.u.
     unit-cell volume          =    1316.2915 (a.u.)^3
     number of atoms/cell      =            3
     number of atomic types    =            3
     number of electrons       =        27.00
     number of Kohn-Sham states=           18
     kinetic-energy cutoff     =      50.0000  Ry
     charge density cutoff     =     400.0000  Ry
     scf convergence threshold =      1.0E-08
     mixing beta               =       0.4000
     number of iterations used =            8  plain     mixing
     Exchange-correlation= PBE
                           (   1   4   3   4   0   0   0)

     celldm(1)=   5.086871  celldm(2)=   0.000000  celldm(3)=   0.000000
     celldm(4)=   0.000000  celldm(5)=   0.000000  celldm(6)=   0.000000

     crystal axes: (cart. coord. in units of alat)
               a(1) = (   1.000000   0.000000   0.000000 )  
               a(2) = (   0.000000   1.000000   0.000000 )  
               a(3) = (   0.000000   0.000000  10.000000 )  

     reciprocal axes: (cart. coord. in units 2 pi/alat)
               b(1) = (  1.000000  0.000000  0.000000 )  
               b(2) = (  0.000000  1.000000  0.000000 )  
               b(3) = (  0.000000  0.000000  0.100000 )  


     PseudoPot. # 1 for O  read from file:
     ../SSSP_1.3.0_PBE_efficiency/O.pbe-n-kjpaw_psl.0.1.UPF
     MD5 check sum: 0234752ac141de4415c5fc33072bef88
     Pseudo is Projector augmented-wave + core cor, Zval =  6.0
     Generated using "atomic" code by A. Dal Corso  v.5.0.99 svn rev. 10869
     Shape of augmentation charge: BESSEL
     Using radial grid of 1095 points,  4 beta functions with: 
                l(1) =   0
                l(2) =   0
                l(3) =   1
                l(4) =   1
     Q(r) pseudized with 0 coefficients 


     PseudoPot. # 2 for Zn read from file:
     ../SSSP_1.3.0_PBE_efficiency/Zn_pbe_v1.uspp.F.UPF
     MD5 check sum: df62231357ef9e81f77b2b3087fa5675
     Pseudo is Ultrasoft, Zval = 20.0
     Generated by new atomic code, or converted to UPF format
     Using radial grid of  943 points,  6 beta functions with: 
                l(1) =   0
                l(2) =   0
                l(3) =   1
                l(4) =   1
                l(5) =   2
                l(6) =   2
     Q(r) pseudized with  8 coefficients,  rinner =    1.100   1.100   1.100
                                                       1.100   1.100

     PseudoPot. # 3 for H  read from file:
     ../SSSP_1.3.0_PBE_efficiency/H.pbe-rrkjus_psl.1.0.0.UPF
     MD5 check sum: f52b6d4d1c606e5624b1dc7b2218f220
     Pseudo is Ultrasoft, Zval =  1.0
     Generated using "atomic" code by A. Dal Corso  v.5.1
     Using radial grid of  929 points,  2 beta functions with: 
                l(1) =   0
                l(2) =   0
     Q(r) pseudized with 0 coefficients 


     atomic species   valence    mass     pseudopotential
     O                 6.00    15.99940     O ( 1.00)
     Zn               20.00    65.38000     Zn( 1.00)
     H                 1.00     1.00794     H ( 1.00)

      8 Sym. Ops. (no inversion) found


                                    s                        frac. trans.

      isym =  1     identity                                     

 cryst.   s( 1) = (     1          0          0      )
                  (     0          1          0      )
                  (     0          0          1      )

 cart.    s( 1) = (  1.0000000  0.0000000  0.0000000 )
                  (  0.0000000  1.0000000  0.0000000 )
                  (  0.0000000  0.0000000  1.0000000 )


      isym =  2     180 deg rotation - cart. axis [0,0,1]        

 cryst.   s( 2) = (    -1          0          0      )
                  (     0         -1          0      )
                  (     0          0          1      )

 cart.    s( 2) = ( -1.0000000  0.0000000  0.0000000 )
                  (  0.0000000 -1.0000000  0.0000000 )
                  (  0.0000000  0.0000000  1.0000000 )


      isym =  3      90 deg rotation - cart. axis [0,0,-1]       

 cryst.   s( 3) = (     0         -1          0      )
                  (     1          0          0      )
                  (     0          0          1      )

 cart.    s( 3) = (  0.0000000  1.0000000  0.0000000 )
                  ( -1.0000000  0.0000000  0.0000000 )
                  (  0.0000000  0.0000000  1.0000000 )


      isym =  4      90 deg rotation - cart. axis [0,0,1]        

 cryst.   s( 4) = (     0          1          0      )
                  (    -1          0          0      )
                  (     0          0          1      )

 cart.    s( 4) = (  0.0000000 -1.0000000  0.0000000 )
                  (  1.0000000  0.0000000  0.0000000 )
                  (  0.0000000  0.0000000  1.0000000 )


      isym =  5     inv. 180 deg rotation - cart. axis [0,1,0]   

 cryst.   s( 5) = (     1          0          0      )
                  (     0         -1          0      )
                  (     0          0          1      )

 cart.    s( 5) = (  1.0000000  0.0000000  0.0000000 )
                  (  0.0000000 -1.0000000  0.0000000 )
                  (  0.0000000  0.0000000  1.0000000 )


      isym =  6     inv. 180 deg rotation - cart. axis [1,0,0]   

 cryst.   s( 6) = (    -1          0          0      )
                  (     0          1          0      )
                  (     0          0          1      )

 cart.    s( 6) = ( -1.0000000  0.0000000  0.0000000 )
                  (  0.0000000  1.0000000  0.0000000 )
                  (  0.0000000  0.0000000  1.0000000 )


      isym =  7     inv. 180 deg rotation - cart. axis [1,1,0]   

 cryst.   s( 7) = (     0         -1          0      )
                  (    -1          0          0      )
                  (     0          0          1      )

 cart.    s( 7) = (  0.0000000 -1.0000000  0.0000000 )
                  ( -1.0000000  0.0000000  0.0000000 )
                  (  0.0000000  0.0000000  1.0000000 )


      isym =  8     inv. 180 deg rotation - cart. axis [1,-1,0]  

 cryst.   s( 8) = (     0          1          0      )
                  (     1          0          0      )
                  (     0          0          1      )

 cart.    s( 8) = (  0.0000000  1.0000000  0.0000000 )
                  (  1.0000000  0.0000000  0.0000000 )
                  (  0.0000000  0.0000000  1.0000000 )


   Cartesian axes

     site n.     atom                  positions (alat units)
         1        Zn     tau(   1) = (   0.0000000   0.0000000   0.0000000  )
         2        O      tau(   2) = (   0.5000000   0.5000000   0.5000000  )
         3        H      tau(   3) = (   0.5000000   0.5000000   0.8000000  )

   Crystallographic axes

     site n.     atom                  positions (cryst. coord.)
         1        Zn     tau(   1) = (  0.0000000  0.0000000  0.0000000  )
         2        O      tau(   2) = (  0.5000000  0.5000000  0.0500000  )
         3        H      tau(   3) = (  0.5000000  0.5000000  0.0800000  )

     number of k points=    28  Marzari-Vanderbilt smearing, width (Ry)=  0.0147
                       cart. coord. in units 2pi/alat
        k(    1) = (   0.0000000   0.0000000   0.0000000), wk =   0.0138889
        k(    2) = (   0.0000000   0.0833333   0.0000000), wk =   0.0555556
        k(    3) = (   0.0000000   0.1666667   0.0000000), wk =   0.0555556
        k(    4) = (   0.0000000   0.2500000   0.0000000), wk =   0.0555556
        k(    5) = (   0.0000000   0.3333333   0.0000000), wk =   0.0555556
        k(    6) = (   0.0000000   0.4166667   0.0000000), wk =   0.0555556
        k(    7) = (   0.0000000  -0.5000000   0.0000000), wk =   0.0277778
        k(    8) = (   0.0833333   0.0833333   0.0000000), wk =   0.0555556
        k(    9) = (   0.0833333   0.1666667   0.0000000), wk =   0.1111111
        k(   10) = (   0.0833333   0.2500000   0.0000000), wk =   0.1111111
        k(   11) = (   0.0833333   0.3333333   0.0000000), wk =   0.1111111
        k(   12) = (   0.0833333   0.4166667   0.0000000), wk =   0.1111111
        k(   13) = (   0.0833333  -0.5000000   0.0000000), wk =   0.0555556
        k(   14) = (   0.1666667   0.1666667   0.0000000), wk =   0.0555556
        k(   15) = (   0.1666667   0.2500000   0.0000000), wk =   0.1111111
        k(   16) = (   0.1666667   0.3333333   0.0000000), wk =   0.1111111
        k(   17) = (   0.1666667   0.4166667   0.0000000), wk =   0.1111111
        k(   18) = (   0.1666667  -0.5000000   0.0000000), wk =   0.0555556
        k(   19) = (   0.2500000   0.2500000   0.0000000), wk =   0.0555556
        k(   20) = (   0.2500000   0.3333333   0.0000000), wk =   0.1111111
        k(   21) = (   0.2500000   0.4166667   0.0000000), wk =   0.1111111
        k(   22) = (   0.2500000  -0.5000000   0.0000000), wk =   0.0555556
        k(   23) = (   0.3333333   0.3333333   0.0000000), wk =   0.0555556
        k(   24) = (   0.3333333   0.4166667   0.0000000), wk =   0.1111111
        k(   25) = (   0.3333333  -0.5000000   0.0000000), wk =   0.0555556
        k(   26) = (   0.4166667   0.4166667   0.0000000), wk =   0.0555556
        k(   27) = (   0.4166667  -0.5000000   0.0000000), wk =   0.0555556
        k(   28) = (  -0.5000000  -0.5000000   0.0000000), wk =   0.0138889

                       cryst. coord.
        k(    1) = (   0.0000000   0.0000000   0.0000000), wk =   0.0138889
        k(    2) = (   0.0000000   0.0833333   0.0000000), wk =   0.0555556
        k(    3) = (   0.0000000   0.1666667   0.0000000), wk =   0.0555556
        k(    4) = (   0.0000000   0.2500000   0.0000000), wk =   0.0555556
        k(    5) = (   0.0000000   0.3333333   0.0000000), wk =   0.0555556
        k(    6) = (   0.0000000   0.4166667   0.0000000), wk =   0.0555556
        k(    7) = (   0.0000000  -0.5000000   0.0000000), wk =   0.0277778
        k(    8) = (   0.0833333   0.0833333   0.0000000), wk =   0.0555556
        k(    9) = (   0.0833333   0.1666667   0.0000000), wk =   0.1111111
        k(   10) = (   0.0833333   0.2500000   0.0000000), wk =   0.1111111
        k(   11) = (   0.0833333   0.3333333   0.0000000), wk =   0.1111111
        k(   12) = (   0.0833333   0.4166667   0.0000000), wk =   0.1111111
        k(   13) = (   0.0833333  -0.5000000   0.0000000), wk =   0.0555556
        k(   14) = (   0.1666667   0.1666667   0.0000000), wk =   0.0555556
        k(   15) = (   0.1666667   0.2500000   0.0000000), wk =   0.1111111
        k(   16) = (   0.1666667   0.3333333   0.0000000), wk =   0.1111111
        k(   17) = (   0.1666667   0.4166667   0.0000000), wk =   0.1111111
        k(   18) = (   0.1666667  -0.5000000   0.0000000), wk =   0.0555556
        k(   19) = (   0.2500000   0.2500000   0.0000000), wk =   0.0555556
        k(   20) = (   0.2500000   0.3333333   0.0000000), wk =   0.1111111
        k(   21) = (   0.2500000   0.4166667   0.0000000), wk =   0.1111111
        k(   22) = (   0.2500000  -0.5000000   0.0000000), wk =   0.0555556
        k(   23) = (   0.3333333   0.3333333   0.0000000), wk =   0.0555556
        k(   24) = (   0.3333333   0.4166667   0.0000000), wk =   0.1111111
        k(   25) = (   0.3333333  -0.5000000   0.0000000), wk =   0.0555556
        k(   26) = (   0.4166667   0.4166667   0.0000000), wk =   0.0555556
        k(   27) = (   0.4166667  -0.5000000   0.0000000), wk =   0.0555556
        k(   28) = (  -0.5000000  -0.5000000   0.0000000), wk =   0.0138889

     Dense  grid:   177743 G-vectors     FFT dimensions: (  36,  36, 324)

     Smooth grid:    63081 G-vectors     FFT dimensions: (  24,  24, 240)

     Dynamical RAM for                 wfc:       2.16 MB

     Dynamical RAM for     wfc (w. buffer):      62.60 MB

     Dynamical RAM for           str. fact:       8.14 MB

     Dynamical RAM for           local pot:       0.00 MB

     Dynamical RAM for          nlocal pot:       3.36 MB

     Dynamical RAM for                qrad:       4.82 MB

     Dynamical RAM for          rho,v,vnew:      17.75 MB

     Dynamical RAM for               rhoin:       5.92 MB

     Dynamical RAM for            rho*nmix:      43.39 MB

     Dynamical RAM for           G-vectors:      10.65 MB

     Dynamical RAM for          h,s,v(r/c):       0.06 MB

     Dynamical RAM for          <psi|beta>:       0.01 MB

     Dynamical RAM for                 psi:       4.32 MB

     Dynamical RAM for                hpsi:       4.32 MB

     Dynamical RAM for                spsi:       4.32 MB

     Dynamical RAM for      wfcinit/wfcrot:       4.32 MB

     Dynamical RAM for           addusdens:     507.17 MB

     Dynamical RAM for          addusforce:     508.53 MB

     Dynamical RAM for         addusstress:     545.14 MB

     Estimated static dynamical RAM per process >     140.09 MB

     Estimated max dynamical RAM per process >     728.62 MB

     Initial potential from superposition of free atoms

     starting charge      26.9998, renormalised to      27.0000

     negative rho (up, down):  1.411E-04 0.000E+00
     Starting wfcs are   18 randomized atomic wfcs
     Checking if some PAW data can be deallocated... 

     total cpu time spent up to now is        4.0 secs

     Self-consistent Calculation

     iteration #  1     ecut=    50.00 Ry     beta= 0.40
     Davidson diagonalization with overlap

---- Real-time Memory Report at c_bands before calling an iterative solver
           610 MiB given to the printing process from OS
             0 MiB allocation reported by mallinfo(arena+hblkhd)
          5291 MiB available memory on the node where the printing process lives
------------------
     ethr =  1.00E-02,  avg # of iterations =  6.8

     negative rho (up, down):  7.798E-05 0.000E+00

     total cpu time spent up to now is       14.1 secs

     total energy              =    -504.04484943 Ry
     estimated scf accuracy    <       0.78931123 Ry

     iteration #  2     ecut=    50.00 Ry     beta= 0.40
     Davidson diagonalization with overlap

---- Real-time Memory Report at c_bands before calling an iterative solver
           699 MiB given to the printing process from OS
             0 MiB allocation reported by mallinfo(arena+hblkhd)
          5270 MiB available memory on the node where the printing process lives
------------------
     ethr =  2.92E-03,  avg # of iterations =  3.3

     negative rho (up, down):  7.083E-05 0.000E+00

     total cpu time spent up to now is       23.4 secs

     total energy              =    -504.10703353 Ry
     estimated scf accuracy    <       0.58391989 Ry

     iteration #  3     ecut=    50.00 Ry     beta= 0.40
     Davidson diagonalization with overlap

---- Real-time Memory Report at c_bands before calling an iterative solver
           701 MiB given to the printing process from OS
             0 MiB allocation reported by mallinfo(arena+hblkhd)
          5267 MiB available memory on the node where the printing process lives
------------------
     ethr =  2.16E-03,  avg # of iterations =  3.1

     negative rho (up, down):  9.809E-05 0.000E+00

     total cpu time spent up to now is       39.6 secs

     total energy              =    -504.25772007 Ry
     estimated scf accuracy    <       0.09894853 Ry

     iteration #  4     ecut=    50.00 Ry     beta= 0.40
     Davidson diagonalization with overlap

---- Real-time Memory Report at c_bands before calling an iterative solver
           704 MiB given to the printing process from OS
             0 MiB allocation reported by mallinfo(arena+hblkhd)
          5112 MiB available memory on the node where the printing process lives
------------------
     ethr =  3.66E-04,  avg # of iterations =  4.5

     negative rho (up, down):  1.320E-04 0.000E+00

     total cpu time spent up to now is       50.6 secs

     total energy              =    -504.25185016 Ry
     estimated scf accuracy    <       0.02121594 Ry

     iteration #  5     ecut=    50.00 Ry     beta= 0.40
     Davidson diagonalization with overlap

---- Real-time Memory Report at c_bands before calling an iterative solver
           706 MiB given to the printing process from OS
             0 MiB allocation reported by mallinfo(arena+hblkhd)
          5113 MiB available memory on the node where the printing process lives
------------------
     ethr =  7.86E-05,  avg # of iterations =  6.0

     negative rho (up, down):  1.420E-04 0.000E+00

     total cpu time spent up to now is       62.2 secs

     total energy              =    -504.25650217 Ry
     estimated scf accuracy    <       0.00607972 Ry

     iteration #  6     ecut=    50.00 Ry     beta= 0.40
     Davidson diagonalization with overlap

---- Real-time Memory Report at c_bands before calling an iterative solver
           707 MiB given to the printing process from OS
             0 MiB allocation reported by mallinfo(arena+hblkhd)
          5111 MiB available memory on the node where the printing process lives
------------------
     ethr =  2.25E-05,  avg # of iterations =  4.6

     negative rho (up, down):  1.501E-04 0.000E+00

     total cpu time spent up to now is       71.7 secs

     total energy              =    -504.25791096 Ry
     estimated scf accuracy    <       0.00064861 Ry

     iteration #  7     ecut=    50.00 Ry     beta= 0.40
     Davidson diagonalization with overlap

---- Real-time Memory Report at c_bands before calling an iterative solver
           709 MiB given to the printing process from OS
             0 MiB allocation reported by mallinfo(arena+hblkhd)
          5107 MiB available memory on the node where the printing process lives
------------------
     ethr =  2.40E-06,  avg # of iterations =  4.1

     negative rho (up, down):  1.543E-04 0.000E+00

     total cpu time spent up to now is       81.1 secs

     total energy              =    -504.25805293 Ry
     estimated scf accuracy    <       0.00003181 Ry

     iteration #  8     ecut=    50.00 Ry     beta= 0.40
     Davidson diagonalization with overlap

---- Real-time Memory Report at c_bands before calling an iterative solver
           711 MiB given to the printing process from OS
             0 MiB allocation reported by mallinfo(arena+hblkhd)
          5102 MiB available memory on the node where the printing process lives
------------------
     ethr =  1.18E-07,  avg # of iterations =  1.4

     negative rho (up, down):  1.575E-04 0.000E+00

     total cpu time spent up to now is       88.6 secs

     total energy              =    -504.25804918 Ry
     estimated scf accuracy    <       0.00001404 Ry

     iteration #  9     ecut=    50.00 Ry     beta= 0.40
     Davidson diagonalization with overlap

---- Real-time Memory Report at c_bands before calling an iterative solver
           713 MiB given to the printing process from OS
             0 MiB allocation reported by mallinfo(arena+hblkhd)
          5103 MiB available memory on the node where the printing process lives
------------------
     ethr =  5.20E-08,  avg # of iterations =  1.8

     negative rho (up, down):  1.594E-04 0.000E+00

     total cpu time spent up to now is       97.8 secs

     total energy              =    -504.25805191 Ry
     estimated scf accuracy    <       0.00000040 Ry

     iteration # 10     ecut=    50.00 Ry     beta= 0.40
     Davidson diagonalization with overlap

---- Real-time Memory Report at c_bands before calling an iterative solver
           715 MiB given to the printing process from OS
             0 MiB allocation reported by mallinfo(arena+hblkhd)
          5099 MiB available memory on the node where the printing process lives
------------------
     ethr =  1.47E-09,  avg # of iterations =  2.0

     negative rho (up, down):  1.602E-04 0.000E+00

     total cpu time spent up to now is      106.5 secs

     total energy              =    -504.25805201 Ry
     estimated scf accuracy    <       0.00000013 Ry

     iteration # 11     ecut=    50.00 Ry     beta= 0.40
     Davidson diagonalization with overlap

---- Real-time Memory Report at c_bands before calling an iterative solver
           715 MiB given to the printing process from OS
             0 MiB allocation reported by mallinfo(arena+hblkhd)
          5098 MiB available memory on the node where the printing process lives
------------------
     ethr =  4.99E-10,  avg # of iterations =  1.0

     negative rho (up, down):  1.607E-04 0.000E+00

     total cpu time spent up to now is      114.2 secs

     total energy              =    -504.25805199 Ry
     estimated scf accuracy    <       0.00000005 Ry

     iteration # 12     ecut=    50.00 Ry     beta= 0.40
     Davidson diagonalization with overlap

---- Real-time Memory Report at c_bands before calling an iterative solver
           715 MiB given to the printing process from OS
             0 MiB allocation reported by mallinfo(arena+hblkhd)
          5098 MiB available memory on the node where the printing process lives
------------------
     ethr =  1.76E-10,  avg # of iterations =  2.0

     negative rho (up, down):  1.614E-04 0.000E+00

     total cpu time spent up to now is      123.4 secs

     End of self-consistent calculation

          k = 0.0000 0.0000 0.0000 (  7831 PWs)   bands (ev):

  -127.8096 -81.9943 -81.9943 -81.9381 -22.8276 -11.2708  -9.3950  -8.7028
    -8.5570  -8.5570  -8.4100  -5.2350  -3.3184  -3.3184   0.0366   1.2275
     1.5862   1.8127

     occupation numbers 
     1.0000   1.0000   1.0000   1.0000   1.0000   1.0000   1.0000   1.0000
     1.0000   1.0000   1.0000   1.0000   1.0000   1.0000   0.0000   0.0000
     0.0000   0.0000

          k = 0.0000 0.0833 0.0000 (  7841 PWs)   bands (ev):

  -127.8095 -81.9955 -81.9942 -81.9381 -22.7938 -11.1910  -9.3685  -8.7176
    -8.5741  -8.5528  -8.4325  -5.1318  -3.6159  -3.2917   0.2297   1.3867
     1.7295   1.9575

     occupation numbers 
     1.0000   1.0000   1.0000   1.0000   1.0000   1.0000   1.0000   1.0000
     1.0000   1.0000   1.0000   1.0000   1.0000   1.0000   0.0000   0.0000
     0.0000   0.0000

          k = 0.0000 0.1667 0.0000 (  7857 PWs)   bands (ev):

  -127.8093 -81.9986 -81.9940 -81.9379 -22.7000 -10.9679  -9.3043  -8.7636
    -8.5948  -8.5494  -8.4847  -4.9894  -4.1444  -3.2194   0.7240   1.8448
     2.1456   2.3919

     occupation numbers 
     1.0000   1.0000   1.0000   1.0000   1.0000   1.0000   1.0000   1.0000
     1.0000   1.0000   1.0000   1.0000   1.0000   1.0000   0.0000   0.0000
     0.0000   0.0000

          k = 0.0000 0.2500 0.0000 (  7881 PWs)   bands (ev):

  -127.8090 -82.0028 -81.9938 -81.9375 -22.5677 -10.6506  -9.2591  -8.7778
    -8.6021  -8.6005  -8.4963  -5.5198  -3.8956  -3.1211   1.4388   2.5778
     2.8090   3.1108

     occupation numbers 
     1.0000   1.0000   1.0000   1.0000   1.0000   1.0000   1.0000   1.0000
     1.0000   1.0000   1.0000   1.0000   1.0000   1.0000   0.0000   0.0000
     0.0000   0.0000

          k = 0.0000 0.3333 0.0000 (  7882 PWs)   bands (ev):

  -127.8087 -82.0071 -81.9935 -81.9372 -22.4302 -10.3188  -9.2927  -8.6836
    -8.6813  -8.5937  -8.4790  -6.2622  -3.1316  -3.0232   2.2092   3.2622
     3.5833   3.7727

     occupation numbers 
     1.0000   1.0000   1.0000   1.0000   1.0000   1.0000   1.0000   1.0000
     1.0000   1.0000   1.0000   1.0000   1.0000   1.0000   0.0000   0.0000
     0.0000   0.0000

          k = 0.0000 0.4167 0.0000 (  7900 PWs)   bands (ev):

  -127.8085 -82.0102 -81.9933 -81.9370 -22.3261 -10.0642  -9.3613  -8.7401
    -8.6409  -8.4694  -8.4639  -6.8236  -2.9517  -2.1271   1.1095   3.7565
     4.7169   4.9413

     occupation numbers 
     1.0000   1.0000   1.0000   1.0000   1.0000   1.0000   1.0000   1.0000
     1.0000   1.0000   1.0000   1.0000   1.0000   0.3955   0.0000   0.0000
     0.0000   0.0000

          k = 0.0000-0.5000 0.0000 (  7920 PWs)   bands (ev):

  -127.8085 -82.0114 -81.9932 -81.9369 -22.2872  -9.9659  -9.3964  -8.7615
    -8.6446  -8.4583  -8.3725  -7.0459  -2.9256  -1.2945   0.0145   5.0028
     5.0958   5.8545

     occupation numbers 
     1.0000   1.0000   1.0000   1.0000   1.0000   1.0000   1.0000   1.0000
     1.0000   1.0000   1.0000   1.0000   1.0000   0.0000   0.0000   0.0000
     0.0000   0.0000

          k = 0.0833 0.0833 0.0000 (  7870 PWs)   bands (ev):

  -127.8094 -81.9954 -81.9954 -81.9380 -22.7604 -11.1139  -9.3401  -8.7277
    -8.5884  -8.5512  -8.4571  -5.0436  -3.6512  -3.4932   0.4102   1.5433
     1.8710   2.1027

     occupation numbers 
     1.0000   1.0000   1.0000   1.0000   1.0000   1.0000   1.0000   1.0000
     1.0000   1.0000   1.0000   1.0000   1.0000   1.0000   0.0000   0.0000
     0.0000   0.0000

          k = 0.0833 0.1667 0.0000 (  7854 PWs)   bands (ev):

  -127.8092 -81.9985 -81.9952 -81.9378 -22.6675 -10.8992  -9.2700  -8.7615
    -8.6228  -8.5320  -8.5164  -4.9611  -4.0543  -3.4512   0.8869   1.9965
     2.2825   2.5374

     occupation numbers 
     1.0000   1.0000   1.0000   1.0000   1.0000   1.0000   1.0000   1.0000
     1.0000   1.0000   1.0000   1.0000   1.0000   1.0000   0.0000   0.0000
     0.0000   0.0000

          k = 0.0833 0.2500 0.0000 (  7876 PWs)   bands (ev):

  -127.8089 -82.0027 -81.9949 -81.9374 -22.5366 -10.5978  -9.2156  -8.7766
    -8.6609  -8.5678  -8.5010  -5.4897  -3.8373  -3.2908   1.5930   2.7252
     2.9402   3.2569

     occupation numbers 
     1.0000   1.0000   1.0000   1.0000   1.0000   1.0000   1.0000   1.0000
     1.0000   1.0000   1.0000   1.0000   1.0000   1.0000   0.0000   0.0000
     0.0000   0.0000

          k = 0.0833 0.3333 0.0000 (  7864 PWs)   bands (ev):

  -127.8087 -82.0070 -81.9946 -81.9371 -22.4007 -10.2892  -9.2386  -8.7815
    -8.6565  -8.5606  -8.4543  -6.2066  -3.3852  -2.8812   2.3729   3.3709
     3.7161   3.9049

     occupation numbers 
     1.0000   1.0000   1.0000   1.0000   1.0000   1.0000   1.0000   1.0000
     1.0000   1.0000   1.0000   1.0000   1.0000   1.0000   0.0000   0.0000
     0.0000   0.0000

          k = 0.0833 0.4167 0.0000 (  7894 PWs)   bands (ev):

  -127.8085 -82.0101 -81.9944 -81.9369 -22.2977 -10.0594  -9.2937  -8.8340
    -8.6494  -8.5006  -8.3352  -6.7530  -3.2173  -1.9764   1.2532   3.8833
     4.8334   5.0829

     occupation numbers 
     1.0000   1.0000   1.0000   1.0000   1.0000   1.0000   1.0000   1.0000
     1.0000   1.0000   1.0000   1.0000   1.0000   0.0652   0.0000   0.0000
     0.0000   0.0000

          k = 0.0833-0.5000 0.0000 (  7904 PWs)   bands (ev):

  -127.8084 -82.0113 -81.9943 -81.9368 -22.2592  -9.9737  -9.3203  -8.8575
    -8.6548  -8.4848  -8.2408  -6.9708  -3.1725  -1.1823   0.1761   5.1385
     5.2382   5.9124

     occupation numbers 
     1.0000   1.0000   1.0000   1.0000   1.0000   1.0000   1.0000   1.0000
     1.0000   1.0000   1.0000   1.0000   1.0000   0.0000   0.0000   0.0000
     0.0000   0.0000

          k = 0.1667 0.1667 0.0000 (  7864 PWs)   bands (ev):

  -127.8090 -81.9984 -81.9982 -81.9375 -22.5773 -10.7122  -9.1803  -8.7598
    -8.6752  -8.6005  -8.4868  -4.9998  -3.9495  -3.7269   1.3380   2.4398
     2.6828   2.9726

     occupation numbers 
     1.0000   1.0000   1.0000   1.0000   1.0000   1.0000   1.0000   1.0000
     1.0000   1.0000   1.0000   1.0000   1.0000   1.0000   0.0000   0.0000
     0.0000   0.0000

          k = 0.1667 0.2500 0.0000 (  7859 PWs)   bands (ev):

  -127.8087 -82.0025 -81.9980 -81.9372 -22.4503 -10.4617  -9.0940  -8.7820
    -8.7075  -8.6554  -8.4218  -5.4304  -4.0755  -3.2519   2.0323   3.1569
     3.3271   3.6916

     occupation numbers 
     1.0000   1.0000   1.0000   1.0000   1.0000   1.0000   1.0000   1.0000
     1.0000   1.0000   1.0000   1.0000   1.0000   1.0000   0.0000   0.0000
     0.0000   0.0000

          k = 0.1667 0.3333 0.0000 (  7846 PWs)   bands (ev):

  -127.8084 -82.0067 -81.9976 -81.9369 -22.3185 -10.2231  -9.0863  -8.8699
    -8.6986  -8.5983  -8.3024  -6.0606  -3.9562  -2.5366   2.8389   3.6676
     4.1113   4.2953

     occupation numbers 
     1.0000   1.0000   1.0000   1.0000   1.0000   1.0000   1.0000   1.0000
     1.0000   1.0000   1.0000   1.0000   1.0000   1.0378   0.0000   0.0000
     0.0000   0.0000

          k = 0.1667 0.4167 0.0000 (  7870 PWs)   bands (ev):

  -127.8082 -82.0099 -81.9974 -81.9366 -22.2188 -10.0599  -9.1101  -8.9525
    -8.7085  -8.5268  -8.1137  -6.5625  -3.8237  -1.6061   1.6421   4.2593
     5.1548   5.5082

     occupation numbers 
     1.0000   1.0000   1.0000   1.0000   1.0000   1.0000   1.0000   1.0000
     1.0000   1.0000   1.0000   1.0000   1.0000   0.0000   0.0000   0.0000
     0.0000   0.0000

          k = 0.1667-0.5000 0.0000 (  7874 PWs)   bands (ev):

  -127.8082 -82.0110 -81.9973 -81.9366 -22.1816 -10.0030  -9.1183  -8.9886
    -8.7139  -8.5055  -8.0037  -6.7654  -3.7706  -0.8489   0.5892   5.5362
     5.6610   6.0241

     occupation numbers 
     1.0000   1.0000   1.0000   1.0000   1.0000   1.0000   1.0000   1.0000
     1.0000   1.0000   1.0000   1.0000   1.0000   0.0000   0.0000   0.0000
     0.0000   0.0000

          k = 0.2500 0.2500 0.0000 (  7842 PWs)   bands (ev):

  -127.8084 -82.0022 -82.0020 -81.9369 -22.3289 -10.2983  -8.9539  -8.8223
    -8.7747  -8.6744  -8.2945  -5.4932  -4.5358  -2.7340   2.7242   3.8340
     3.9720   4.4103

     occupation numbers 
     1.0000   1.0000   1.0000   1.0000   1.0000   1.0000   1.0000   1.0000
     1.0000   1.0000   1.0000   1.0000   1.0000   1.0013   0.0000   0.0000
     0.0000   0.0000

          k = 0.2500 0.3333 0.0000 (  7834 PWs)   bands (ev):

  -127.8082 -82.0064 -82.0018 -81.9365 -22.2032 -10.1641  -8.9623  -8.8980
    -8.7515  -8.5902  -8.1029  -5.8780  -4.6234  -1.9844   3.5695   4.0702
     4.6957   4.9527

     occupation numbers 
     1.0000   1.0000   1.0000   1.0000   1.0000   1.0000   1.0000   1.0000
     1.0000   1.0000   1.0000   1.0000   1.0000   0.0736   0.0000   0.0000
     0.0000   0.0000

          k = 0.2500 0.4167 0.0000 (  7841 PWs)   bands (ev):

  -127.8080 -82.0095 -82.0016 -81.9363 -22.1081 -10.0841  -9.0391  -8.9299
    -8.7341  -8.5051  -7.8763  -6.2928  -4.5295  -1.0455   2.2004   4.8617
     5.5584   6.2166

     occupation numbers 
     1.0000   1.0000   1.0000   1.0000   1.0000   1.0000   1.0000   1.0000
     1.0000   1.0000   1.0000   1.0000   1.0000   0.0000   0.0000   0.0000
     0.0000   0.0000

          k = 0.2500-0.5000 0.0000 (  7850 PWs)   bands (ev):

  -127.8079 -82.0106 -82.0015 -81.9362 -22.0727 -10.0584  -9.0684  -8.9437
    -8.7295  -8.4765  -7.7625  -6.4665  -4.4783  -0.3016   1.1643   5.9629
     6.1729   6.3424

     occupation numbers 
     1.0000   1.0000   1.0000   1.0000   1.0000   1.0000   1.0000   1.0000
     1.0000   1.0000   1.0000   1.0000   1.0000   0.0000   0.0000   0.0000
     0.0000   0.0000

          k = 0.3333 0.3333 0.0000 (  7832 PWs)   bands (ev):

  -127.8079 -82.0061 -82.0059 -81.9362 -22.0838 -10.1341  -8.9965  -8.9765
    -8.5765  -8.5710  -7.8692  -5.7972  -5.1034  -1.2294   4.1170   4.5643
     4.9987   5.9106

     occupation numbers 
     1.0000   1.0000   1.0000   1.0000   1.0000   1.0000   1.0000   1.0000
     1.0000   1.0000   1.0000   1.0000   1.0000   0.0000   0.0000   0.0000
     0.0000   0.0000

          k = 0.3333 0.4167 0.0000 (  7838 PWs)   bands (ev):

  -127.8077 -82.0091 -82.0058 -81.9360 -21.9938 -10.1261  -9.0726  -9.0044
    -8.5571  -8.4339  -7.6489  -5.9937  -5.1541  -0.2910   2.8254   5.1527
     5.8246   6.5224

     occupation numbers 
     1.0000   1.0000   1.0000   1.0000   1.0000   1.0000   1.0000   1.0000
     1.0000   1.0000   1.0000   1.0000   1.0000   0.0000   0.0000   0.0000
     0.0000   0.0000

          k = 0.3333-0.5000 0.0000 (  7856 PWs)   bands (ev):

  -127.8076 -82.0102 -82.0057 -81.9359 -21.9602 -10.1254  -9.1023  -9.0132
    -8.5515  -8.3865  -7.5518  -6.1216  -5.1108   0.4527   1.8381   5.2952
     6.8341   6.9884

     occupation numbers 
     1.0000   1.0000   1.0000   1.0000   1.0000   1.0000   1.0000   1.0000
     1.0000   1.0000   1.0000   1.0000   1.0000   0.0000   0.0000   0.0000
     0.0000   0.0000

          k = 0.4167 0.4167 0.0000 (  7842 PWs)   bands (ev):

  -127.8075 -82.0089 -82.0088 -81.9357 -21.9075 -10.1637  -9.0927  -9.0782
    -8.4960  -8.2919  -7.4707  -5.7866  -5.5326   0.6432   3.1203   4.0843
     6.3465   6.9084

     occupation numbers 
     1.0000   1.0000   1.0000   1.0000   1.0000   1.0000   1.0000   1.0000
     1.0000   1.0000   1.0000   1.0000   1.0000   0.0000   0.0000   0.0000
     0.0000   0.0000

          k = 0.4167-0.5000 0.0000 (  7830 PWs)   bands (ev):

  -127.8074 -82.0100 -82.0087 -81.9356 -21.8754 -10.1784  -9.1147  -9.0900
    -8.4838  -8.2318  -7.3997  -5.8230  -5.5449   1.4111   2.4790   3.9786
     6.4272   7.4458

     occupation numbers 
     1.0000   1.0000   1.0000   1.0000   1.0000   1.0000   1.0000   1.0000
     1.0000   1.0000   1.0000   1.0000   1.0000   0.0000   0.0000   0.0000
     0.0000   0.0000

          k =-0.5000-0.5000 0.0000 (  7904 PWs)   bands (ev):

  -127.8073 -82.0099 -82.0099 -81.9356 -21.8439 -10.1982  -9.1183  -9.1183
    -8.4694  -8.1655  -7.3417  -5.7007  -5.7007   2.4247   2.7771   2.7771
     6.2501   7.2176

     occupation numbers 
     1.0000   1.0000   1.0000   1.0000   1.0000   1.0000   1.0000   1.0000
     1.0000   1.0000   1.0000   1.0000   1.0000   0.0000   0.0000   0.0000
     0.0000   0.0000

     the Fermi energy is    -2.1286 ev

!    total energy              =    -504.25805200 Ry
     estimated scf accuracy    <          1.6E-10 Ry
     smearing contrib. (-TS)   =      -0.00022106 Ry
     internal energy E=F+TS    =    -504.25783094 Ry

     The total energy is F=E-TS. E is the sum of the following terms:
     one-electron contribution =   -2845.60707150 Ry
     hartree contribution      =    1421.69572170 Ry
     xc contribution           =     -50.47705999 Ry
     ewald contribution        =     979.63690497 Ry
     one-center paw contrib.   =      -9.50632613 Ry
      -> PAW hartree energy AE =      29.31936367 Ry
      -> PAW hartree energy PS =     -29.17866319 Ry
      -> PAW xc energy AE      =     -17.17603059 Ry
      -> PAW xc energy PS      =       7.52900397 Ry
      -> total E_H with PAW    =    1421.83642218 Ry
      -> total E_XC with PAW   =     -60.12408660 Ry

     convergence has been achieved in  12 iterations

     negative rho (up, down):  1.614E-04 0.000E+00

     Forces acting on atoms (cartesian axes, Ry/au):

     atom    1 type  2   force =     0.00000000    0.00000000    0.06932114
     atom    2 type  1   force =     0.00000000    0.00000000   -0.64053995
     atom    3 type  3   force =     0.00000000    0.00000000    0.57121881
     The non-local contrib.  to forces
     atom    1 type  2   force =     0.00000000    0.00000000   -0.11725506
     atom    2 type  1   force =     0.00000000    0.00000000    1.32933617
     atom    3 type  3   force =     0.00000000    0.00000000   -0.19139058
     The ionic contribution  to forces
     atom    1 type  2   force =    -0.00000000   -0.00000000  -53.10441945
     atom    2 type  1   force =     0.00000000    0.00000000   39.02065052
     atom    3 type  3   force =     0.00000000    0.00000000   14.08376893
     The local contribution  to forces
     atom    1 type  2   force =     0.00000000    0.00000000   53.29102174
     atom    2 type  1   force =     0.00000000    0.00000000  -40.98238211
     atom    3 type  3   force =     0.00000000    0.00000000  -13.32115033
     The core correction contribution to forces
     atom    1 type  2   force =     0.00000000    0.00000000    0.00000000
     atom    2 type  1   force =    -0.00000000   -0.00000000   -0.00812274
     atom    3 type  3   force =     0.00000000    0.00000000    0.00000000
     The Hubbard contrib.    to forces
     atom    1 type  2   force =     0.00000000    0.00000000    0.00000000
     atom    2 type  1   force =     0.00000000    0.00000000    0.00000000
     atom    3 type  3   force =     0.00000000    0.00000000    0.00000000
     The SCF correction term to forces
     atom    1 type  2   force =    -0.00000000    0.00000000   -0.00001892
     atom    2 type  1   force =    -0.00000000   -0.00000000   -0.00001462
     atom    3 type  3   force =    -0.00000000   -0.00000000   -0.00000205

     Total force =     0.861039     Total SCF correction =     0.000024


     Computing stress (Cartesian axis) and pressure


     negative rho (up, down):  1.614E-04 0.000E+00
          total   stress  (Ry/bohr**3)                   (kbar)     P=       29.51
   0.00003971   0.00000000   0.00000000            5.84        0.00        0.00
   0.00000000   0.00003971   0.00000000            0.00        5.84        0.00
   0.00000000   0.00000000   0.00052231            0.00        0.00       76.83

     kinetic stress (kbar)   4437.67      0.00      0.00
                                0.00   4437.67      0.00
                                0.00      0.00   4242.09

     local   stress (kbar)-275836.53     -0.00     -0.00
                               -0.00-275836.53     -0.00
                               -0.00     -0.00 275958.32

     nonloc. stress (kbar)    -91.72      0.00      0.00
                                0.00    -91.72      0.00
                                0.00      0.00    -95.33

     hartree stress (kbar) 144043.84      0.00      0.00
                                0.00 144043.84      0.00
                                0.00      0.00-129202.92

     exc-cor stress (kbar)  -1752.95      0.00     -0.00
                                0.00  -1752.95     -0.00
                               -0.00     -0.00  -1752.37

     corecor stress (kbar)    -47.85      0.00     -0.00
                                0.00    -47.85     -0.00
                               -0.00     -0.00    -47.72

     ewald   stress (kbar) 129253.37      0.00      0.00
                                0.00 129253.37      0.00
                                0.00      0.00-149025.25

     hubbard stress (kbar)      0.00      0.00      0.00
                                0.00      0.00      0.00
                                0.00      0.00      0.00

     DFT-D   stress (kbar)      0.00      0.00      0.00
                                0.00      0.00      0.00
                                0.00      0.00      0.00

     XDM     stress (kbar)      0.00      0.00      0.00
                                0.00      0.00      0.00
                                0.00      0.00      0.00

     dft-nl  stress (kbar)      0.00      0.00      0.00
                                0.00      0.00      0.00
                                0.00      0.00      0.00

     TS-vdW  stress (kbar)      0.00      0.00      0.00
                                0.00      0.00      0.00
                                0.00      0.00      0.00

     MDB     stress (kbar)      0.00      0.00      0.00
                                0.00      0.00      0.00
                                0.00      0.00      0.00

     3D-RISM stress (kbar)      0.00      0.00      0.00
                                0.00      0.00      0.00
                                0.00      0.00      0.00


     Writing all to output data dir ./temp_cubic/aiida.save/ :
     XML data file, charge density, pseudopotentials, collected wavefunctions

     init_run     :     66.13s CPU      3.65s WALL (       1 calls)
     electrons    :   2344.16s CPU    119.53s WALL (       1 calls)
     forces       :     23.51s CPU      1.45s WALL (       1 calls)
     stress       :     25.73s CPU      3.83s WALL (       1 calls)

     Called by init_run:
     wfcinit      :     60.87s CPU      2.75s WALL (       1 calls)
     wfcinit:atom :      0.49s CPU      0.03s WALL (      28 calls)
     wfcinit:wfcr :     58.02s CPU      2.53s WALL (      28 calls)
     potinit      :      1.65s CPU      0.14s WALL (       1 calls)
     hinit0       :      1.55s CPU      0.29s WALL (       1 calls)

     Called by electrons:
     c_bands      :   1974.80s CPU     94.18s WALL (      12 calls)
     sum_band     :    327.64s CPU     18.90s WALL (      12 calls)
     v_of_rho     :     12.73s CPU      1.00s WALL (      13 calls)
     v_h          :      2.11s CPU      0.14s WALL (      13 calls)
     v_xc         :     12.21s CPU      1.01s WALL (      15 calls)
     newd         :     18.49s CPU      5.19s WALL (      13 calls)
     PAW_pot      :      4.72s CPU      0.22s WALL (      13 calls)
     mix_rho      :      4.44s CPU      0.24s WALL (      12 calls)

     Called by c_bands:
     init_us_2    :     23.26s CPU      1.39s WALL (     756 calls)
     cegterg      :   1944.29s CPU     92.33s WALL (     336 calls)

     Called by sum_band:
     sum_band:wei :      0.00s CPU      0.00s WALL (      12 calls)
     sum_band:loo :    315.84s CPU     13.32s WALL (      12 calls)
     sum_band:buf :      1.20s CPU      0.08s WALL (     336 calls)
     sum_band:ini :     11.98s CPU      0.55s WALL (     336 calls)
     sum_band:cal :     53.32s CPU      1.98s WALL (     336 calls)
     sum_band:bec :      9.72s CPU      0.47s WALL (     336 calls)
     addusdens    :      9.88s CPU      5.35s WALL (      12 calls)
                                        0.00s GPU  (      12 calls)
     addusd:skk   :      0.25s CPU      0.02s WALL (      36 calls)
                                        0.00s GPU  (      36 calls)

     Called by *egterg:
     cdiaghg      :      6.55s CPU      0.39s WALL (    1471 calls)
     cegterg:over :    100.46s CPU      5.42s WALL (    1135 calls)
     cegterg:upda :     50.22s CPU      4.37s WALL (    1135 calls)
     cegterg:last :     46.55s CPU      6.16s WALL (     624 calls)
     h_psi        :   1591.41s CPU     68.20s WALL (    1499 calls)
     s_psi        :     98.75s CPU      4.87s WALL (    1499 calls)
     g_psi        :     15.48s CPU      0.77s WALL (    1135 calls)

     Called by h_psi:
     h_psi:calbec :    133.97s CPU      4.95s WALL (    1499 calls)
     vloc_psi     :   1323.91s CPU     57.32s WALL (    1499 calls)
     add_vuspsi   :    106.61s CPU      4.82s WALL (    1499 calls)

     General routines
     calbec       :    206.61s CPU      7.70s WALL (    1975 calls)
     fft          :     12.31s CPU      0.95s WALL (     192 calls)
     ffts         :      1.26s CPU      0.05s WALL (      25 calls)
     fftw         :    825.01s CPU     35.39s WALL (   35882 calls)
     interpolate  :      2.30s CPU      0.11s WALL (      13 calls)

     Parallel routines

     PAW routines
     PAW_pot      :      4.72s CPU      0.22s WALL (      13 calls)
     PAW_symme    :      0.00s CPU      0.00s WALL (      25 calls)

     PWSCF        :  41m11.33s CPU   2m 9.74s WALL


   This run was terminated on:  21: 6:29  14Jun2024            

=------------------------------------------------------------------------------=
   JOB DONE.
=------------------------------------------------------------------------------=
