
     Program PWSCF v.7.3.1 starts on 14Jun2024 at 20:37:33 

     This program is part of the open-source Quantum ESPRESSO suite
     for quantum simulation of materials; please cite
         "P. Giannozzi et al., J. Phys.:Condens. Matter 21 395502 (2009);
         "P. Giannozzi et al., J. Phys.:Condens. Matter 29 465901 (2017);
         "P. Giannozzi et al., J. Chem. Phys. 152 154105 (2020);
          URL http://www.quantum-espresso.org", 
     in publications or presentations arising from this work. More details at
     http://www.quantum-espresso.org/quote

     Parallel version (MPI & OpenMP), running on      24 processor cores
     Number of MPI processes:                 1
     Threads/MPI process:                    24

     MPI processes distributed on     1 nodes
     5457 MiB available memory on the printing compute node when the environment starts

     Waiting for input...
     Reading input from standard input

     Current dimensions of program PWSCF are:
     Max number of different atomic species (ntypx) = 10
     Max number of k-points (npk) =  40000
     Max angular momentum in pseudopotentials (lmaxx) =  4
     file O.pbe-n-kjpaw_psl.0.1.UPF: wavefunction(s)  2P renormalized
     Message from routine setup:
     using ibrav=0 with symmetry is DISCOURAGED, use correct ibrav instead

     Subspace diagonalization in iterative solution of the eigenvalue problem:
     a serial algorithm will be used


     G-vector sticks info
     --------------------
     sticks:   dense  smooth     PW     G-vecs:    dense   smooth      PW
     Sum         829     421    137               177743    63081   11257

     Using Slab Decomposition



     bravais-lattice index     =            0
     lattice parameter (alat)  =       5.0869  a.u.
     unit-cell volume          =    1316.2915 (a.u.)^3
     number of atoms/cell      =            3
     number of atomic types    =            3
     number of electrons       =        27.00
     number of Kohn-Sham states=           18
     kinetic-energy cutoff     =      50.0000  Ry
     charge density cutoff     =     400.0000  Ry
     scf convergence threshold =      1.0E-08
     mixing beta               =       0.4000
     number of iterations used =            8  plain     mixing
     Exchange-correlation= PBE
                           (   1   4   3   4   0   0   0)

     celldm(1)=   5.086871  celldm(2)=   0.000000  celldm(3)=   0.000000
     celldm(4)=   0.000000  celldm(5)=   0.000000  celldm(6)=   0.000000

     crystal axes: (cart. coord. in units of alat)
               a(1) = (   1.000000   0.000000   0.000000 )  
               a(2) = (   0.000000   1.000000   0.000000 )  
               a(3) = (   0.000000   0.000000  10.000000 )  

     reciprocal axes: (cart. coord. in units 2 pi/alat)
               b(1) = (  1.000000  0.000000  0.000000 )  
               b(2) = (  0.000000  1.000000  0.000000 )  
               b(3) = (  0.000000  0.000000  0.100000 )  


     PseudoPot. # 1 for O  read from file:
     ../SSSP_1.3.0_PBE_efficiency/O.pbe-n-kjpaw_psl.0.1.UPF
     MD5 check sum: 0234752ac141de4415c5fc33072bef88
     Pseudo is Projector augmented-wave + core cor, Zval =  6.0
     Generated using "atomic" code by A. Dal Corso  v.5.0.99 svn rev. 10869
     Shape of augmentation charge: BESSEL
     Using radial grid of 1095 points,  4 beta functions with: 
                l(1) =   0
                l(2) =   0
                l(3) =   1
                l(4) =   1
     Q(r) pseudized with 0 coefficients 


     PseudoPot. # 2 for Zn read from file:
     ../SSSP_1.3.0_PBE_efficiency/Zn_pbe_v1.uspp.F.UPF
     MD5 check sum: df62231357ef9e81f77b2b3087fa5675
     Pseudo is Ultrasoft, Zval = 20.0
     Generated by new atomic code, or converted to UPF format
     Using radial grid of  943 points,  6 beta functions with: 
                l(1) =   0
                l(2) =   0
                l(3) =   1
                l(4) =   1
                l(5) =   2
                l(6) =   2
     Q(r) pseudized with  8 coefficients,  rinner =    1.100   1.100   1.100
                                                       1.100   1.100

     PseudoPot. # 3 for H  read from file:
     ../SSSP_1.3.0_PBE_efficiency/H.pbe-rrkjus_psl.1.0.0.UPF
     MD5 check sum: f52b6d4d1c606e5624b1dc7b2218f220
     Pseudo is Ultrasoft, Zval =  1.0
     Generated using "atomic" code by A. Dal Corso  v.5.1
     Using radial grid of  929 points,  2 beta functions with: 
                l(1) =   0
                l(2) =   0
     Q(r) pseudized with 0 coefficients 


     atomic species   valence    mass     pseudopotential
     O                 6.00    15.99940     O ( 1.00)
     Zn               20.00    65.38000     Zn( 1.00)
     H                 1.00     1.00794     H ( 1.00)

      8 Sym. Ops. (no inversion) found


                                    s                        frac. trans.

      isym =  1     identity                                     

 cryst.   s( 1) = (     1          0          0      )
                  (     0          1          0      )
                  (     0          0          1      )

 cart.    s( 1) = (  1.0000000  0.0000000  0.0000000 )
                  (  0.0000000  1.0000000  0.0000000 )
                  (  0.0000000  0.0000000  1.0000000 )


      isym =  2     180 deg rotation - cart. axis [0,0,1]        

 cryst.   s( 2) = (    -1          0          0      )
                  (     0         -1          0      )
                  (     0          0          1      )

 cart.    s( 2) = ( -1.0000000  0.0000000  0.0000000 )
                  (  0.0000000 -1.0000000  0.0000000 )
                  (  0.0000000  0.0000000  1.0000000 )


      isym =  3      90 deg rotation - cart. axis [0,0,-1]       

 cryst.   s( 3) = (     0         -1          0      )
                  (     1          0          0      )
                  (     0          0          1      )

 cart.    s( 3) = (  0.0000000  1.0000000  0.0000000 )
                  ( -1.0000000  0.0000000  0.0000000 )
                  (  0.0000000  0.0000000  1.0000000 )


      isym =  4      90 deg rotation - cart. axis [0,0,1]        

 cryst.   s( 4) = (     0          1          0      )
                  (    -1          0          0      )
                  (     0          0          1      )

 cart.    s( 4) = (  0.0000000 -1.0000000  0.0000000 )
                  (  1.0000000  0.0000000  0.0000000 )
                  (  0.0000000  0.0000000  1.0000000 )


      isym =  5     inv. 180 deg rotation - cart. axis [0,1,0]   

 cryst.   s( 5) = (     1          0          0      )
                  (     0         -1          0      )
                  (     0          0          1      )

 cart.    s( 5) = (  1.0000000  0.0000000  0.0000000 )
                  (  0.0000000 -1.0000000  0.0000000 )
                  (  0.0000000  0.0000000  1.0000000 )


      isym =  6     inv. 180 deg rotation - cart. axis [1,0,0]   

 cryst.   s( 6) = (    -1          0          0      )
                  (     0          1          0      )
                  (     0          0          1      )

 cart.    s( 6) = ( -1.0000000  0.0000000  0.0000000 )
                  (  0.0000000  1.0000000  0.0000000 )
                  (  0.0000000  0.0000000  1.0000000 )


      isym =  7     inv. 180 deg rotation - cart. axis [1,1,0]   

 cryst.   s( 7) = (     0         -1          0      )
                  (    -1          0          0      )
                  (     0          0          1      )

 cart.    s( 7) = (  0.0000000 -1.0000000  0.0000000 )
                  ( -1.0000000  0.0000000  0.0000000 )
                  (  0.0000000  0.0000000  1.0000000 )


      isym =  8     inv. 180 deg rotation - cart. axis [1,-1,0]  

 cryst.   s( 8) = (     0          1          0      )
                  (     1          0          0      )
                  (     0          0          1      )

 cart.    s( 8) = (  0.0000000  1.0000000  0.0000000 )
                  (  1.0000000  0.0000000  0.0000000 )
                  (  0.0000000  0.0000000  1.0000000 )


   Cartesian axes

     site n.     atom                  positions (alat units)
         1        Zn     tau(   1) = (   0.0000000   0.0000000   0.0000000  )
         2        O      tau(   2) = (   0.5000000   0.5000000   0.5000000  )
         3        H      tau(   3) = (   0.5000000   0.5000000   1.0500000  )

   Crystallographic axes

     site n.     atom                  positions (cryst. coord.)
         1        Zn     tau(   1) = (  0.0000000  0.0000000  0.0000000  )
         2        O      tau(   2) = (  0.5000000  0.5000000  0.0500000  )
         3        H      tau(   3) = (  0.5000000  0.5000000  0.1050000  )

     number of k points=    28  Marzari-Vanderbilt smearing, width (Ry)=  0.0147
                       cart. coord. in units 2pi/alat
        k(    1) = (   0.0000000   0.0000000   0.0000000), wk =   0.0138889
        k(    2) = (   0.0000000   0.0833333   0.0000000), wk =   0.0555556
        k(    3) = (   0.0000000   0.1666667   0.0000000), wk =   0.0555556
        k(    4) = (   0.0000000   0.2500000   0.0000000), wk =   0.0555556
        k(    5) = (   0.0000000   0.3333333   0.0000000), wk =   0.0555556
        k(    6) = (   0.0000000   0.4166667   0.0000000), wk =   0.0555556
        k(    7) = (   0.0000000  -0.5000000   0.0000000), wk =   0.0277778
        k(    8) = (   0.0833333   0.0833333   0.0000000), wk =   0.0555556
        k(    9) = (   0.0833333   0.1666667   0.0000000), wk =   0.1111111
        k(   10) = (   0.0833333   0.2500000   0.0000000), wk =   0.1111111
        k(   11) = (   0.0833333   0.3333333   0.0000000), wk =   0.1111111
        k(   12) = (   0.0833333   0.4166667   0.0000000), wk =   0.1111111
        k(   13) = (   0.0833333  -0.5000000   0.0000000), wk =   0.0555556
        k(   14) = (   0.1666667   0.1666667   0.0000000), wk =   0.0555556
        k(   15) = (   0.1666667   0.2500000   0.0000000), wk =   0.1111111
        k(   16) = (   0.1666667   0.3333333   0.0000000), wk =   0.1111111
        k(   17) = (   0.1666667   0.4166667   0.0000000), wk =   0.1111111
        k(   18) = (   0.1666667  -0.5000000   0.0000000), wk =   0.0555556
        k(   19) = (   0.2500000   0.2500000   0.0000000), wk =   0.0555556
        k(   20) = (   0.2500000   0.3333333   0.0000000), wk =   0.1111111
        k(   21) = (   0.2500000   0.4166667   0.0000000), wk =   0.1111111
        k(   22) = (   0.2500000  -0.5000000   0.0000000), wk =   0.0555556
        k(   23) = (   0.3333333   0.3333333   0.0000000), wk =   0.0555556
        k(   24) = (   0.3333333   0.4166667   0.0000000), wk =   0.1111111
        k(   25) = (   0.3333333  -0.5000000   0.0000000), wk =   0.0555556
        k(   26) = (   0.4166667   0.4166667   0.0000000), wk =   0.0555556
        k(   27) = (   0.4166667  -0.5000000   0.0000000), wk =   0.0555556
        k(   28) = (  -0.5000000  -0.5000000   0.0000000), wk =   0.0138889

                       cryst. coord.
        k(    1) = (   0.0000000   0.0000000   0.0000000), wk =   0.0138889
        k(    2) = (   0.0000000   0.0833333   0.0000000), wk =   0.0555556
        k(    3) = (   0.0000000   0.1666667   0.0000000), wk =   0.0555556
        k(    4) = (   0.0000000   0.2500000   0.0000000), wk =   0.0555556
        k(    5) = (   0.0000000   0.3333333   0.0000000), wk =   0.0555556
        k(    6) = (   0.0000000   0.4166667   0.0000000), wk =   0.0555556
        k(    7) = (   0.0000000  -0.5000000   0.0000000), wk =   0.0277778
        k(    8) = (   0.0833333   0.0833333   0.0000000), wk =   0.0555556
        k(    9) = (   0.0833333   0.1666667   0.0000000), wk =   0.1111111
        k(   10) = (   0.0833333   0.2500000   0.0000000), wk =   0.1111111
        k(   11) = (   0.0833333   0.3333333   0.0000000), wk =   0.1111111
        k(   12) = (   0.0833333   0.4166667   0.0000000), wk =   0.1111111
        k(   13) = (   0.0833333  -0.5000000   0.0000000), wk =   0.0555556
        k(   14) = (   0.1666667   0.1666667   0.0000000), wk =   0.0555556
        k(   15) = (   0.1666667   0.2500000   0.0000000), wk =   0.1111111
        k(   16) = (   0.1666667   0.3333333   0.0000000), wk =   0.1111111
        k(   17) = (   0.1666667   0.4166667   0.0000000), wk =   0.1111111
        k(   18) = (   0.1666667  -0.5000000   0.0000000), wk =   0.0555556
        k(   19) = (   0.2500000   0.2500000   0.0000000), wk =   0.0555556
        k(   20) = (   0.2500000   0.3333333   0.0000000), wk =   0.1111111
        k(   21) = (   0.2500000   0.4166667   0.0000000), wk =   0.1111111
        k(   22) = (   0.2500000  -0.5000000   0.0000000), wk =   0.0555556
        k(   23) = (   0.3333333   0.3333333   0.0000000), wk =   0.0555556
        k(   24) = (   0.3333333   0.4166667   0.0000000), wk =   0.1111111
        k(   25) = (   0.3333333  -0.5000000   0.0000000), wk =   0.0555556
        k(   26) = (   0.4166667   0.4166667   0.0000000), wk =   0.0555556
        k(   27) = (   0.4166667  -0.5000000   0.0000000), wk =   0.0555556
        k(   28) = (  -0.5000000  -0.5000000   0.0000000), wk =   0.0138889

     Dense  grid:   177743 G-vectors     FFT dimensions: (  36,  36, 324)

     Smooth grid:    63081 G-vectors     FFT dimensions: (  24,  24, 240)

     Dynamical RAM for                 wfc:       2.16 MB

     Dynamical RAM for     wfc (w. buffer):      62.60 MB

     Dynamical RAM for           str. fact:       8.14 MB

     Dynamical RAM for           local pot:       0.00 MB

     Dynamical RAM for          nlocal pot:       3.36 MB

     Dynamical RAM for                qrad:       4.82 MB

     Dynamical RAM for          rho,v,vnew:      17.75 MB

     Dynamical RAM for               rhoin:       5.92 MB

     Dynamical RAM for            rho*nmix:      43.39 MB

     Dynamical RAM for           G-vectors:      10.65 MB

     Dynamical RAM for          h,s,v(r/c):       0.06 MB

     Dynamical RAM for          <psi|beta>:       0.01 MB

     Dynamical RAM for                 psi:       4.32 MB

     Dynamical RAM for                hpsi:       4.32 MB

     Dynamical RAM for                spsi:       4.32 MB

     Dynamical RAM for      wfcinit/wfcrot:       4.32 MB

     Dynamical RAM for           addusdens:     507.17 MB

     Dynamical RAM for          addusforce:     508.53 MB

     Dynamical RAM for         addusstress:     545.14 MB

     Estimated static dynamical RAM per process >     140.09 MB

     Estimated max dynamical RAM per process >     728.62 MB

     Initial potential from superposition of free atoms

     starting charge      26.9998, renormalised to      27.0000

     negative rho (up, down):  1.339E-04 0.000E+00
     Starting wfcs are   18 randomized atomic wfcs
     Checking if some PAW data can be deallocated... 

     total cpu time spent up to now is        4.1 secs

     Self-consistent Calculation

     iteration #  1     ecut=    50.00 Ry     beta= 0.40
     Davidson diagonalization with overlap

---- Real-time Memory Report at c_bands before calling an iterative solver
           612 MiB given to the printing process from OS
             0 MiB allocation reported by mallinfo(arena+hblkhd)
          5304 MiB available memory on the node where the printing process lives
------------------
     ethr =  1.00E-02,  avg # of iterations =  6.2

     negative rho (up, down):  6.527E-05 0.000E+00

     total cpu time spent up to now is       17.4 secs

     total energy              =    -503.92853438 Ry
     estimated scf accuracy    <       0.67742468 Ry

     iteration #  2     ecut=    50.00 Ry     beta= 0.40
     Davidson diagonalization with overlap

---- Real-time Memory Report at c_bands before calling an iterative solver
           700 MiB given to the printing process from OS
             0 MiB allocation reported by mallinfo(arena+hblkhd)
          5283 MiB available memory on the node where the printing process lives
------------------
     ethr =  2.51E-03,  avg # of iterations =  4.5

     negative rho (up, down):  5.757E-05 0.000E+00

     total cpu time spent up to now is       28.6 secs

     total energy              =    -503.84711679 Ry
     estimated scf accuracy    <       2.04019335 Ry

     iteration #  3     ecut=    50.00 Ry     beta= 0.40
     Davidson diagonalization with overlap

---- Real-time Memory Report at c_bands before calling an iterative solver
           702 MiB given to the printing process from OS
             0 MiB allocation reported by mallinfo(arena+hblkhd)
          5283 MiB available memory on the node where the printing process lives
------------------
     ethr =  2.51E-03,  avg # of iterations =  2.4

     negative rho (up, down):  5.987E-05 0.000E+00

     total cpu time spent up to now is       38.3 secs

     total energy              =    -504.16926234 Ry
     estimated scf accuracy    <       0.27043556 Ry

     iteration #  4     ecut=    50.00 Ry     beta= 0.40
     Davidson diagonalization with overlap

---- Real-time Memory Report at c_bands before calling an iterative solver
           704 MiB given to the printing process from OS
             0 MiB allocation reported by mallinfo(arena+hblkhd)
          5278 MiB available memory on the node where the printing process lives
------------------
     ethr =  1.00E-03,  avg # of iterations =  1.1

     negative rho (up, down):  7.402E-05 0.000E+00

     total cpu time spent up to now is       47.7 secs

     total energy              =    -504.17358120 Ry
     estimated scf accuracy    <       0.06980020 Ry

     iteration #  5     ecut=    50.00 Ry     beta= 0.40
     Davidson diagonalization with overlap

---- Real-time Memory Report at c_bands before calling an iterative solver
           706 MiB given to the printing process from OS
             0 MiB allocation reported by mallinfo(arena+hblkhd)
          5276 MiB available memory on the node where the printing process lives
------------------
     ethr =  2.59E-04,  avg # of iterations =  4.1

     negative rho (up, down):  9.714E-05 0.000E+00

     total cpu time spent up to now is       60.6 secs

     total energy              =    -504.16661052 Ry
     estimated scf accuracy    <       0.02296347 Ry

     iteration #  6     ecut=    50.00 Ry     beta= 0.40
     Davidson diagonalization with overlap

---- Real-time Memory Report at c_bands before calling an iterative solver
           708 MiB given to the printing process from OS
             0 MiB allocation reported by mallinfo(arena+hblkhd)
          5202 MiB available memory on the node where the printing process lives
------------------
     ethr =  8.50E-05,  avg # of iterations =  4.1

     negative rho (up, down):  1.136E-04 0.000E+00

     total cpu time spent up to now is       70.8 secs

     total energy              =    -504.17032793 Ry
     estimated scf accuracy    <       0.01212086 Ry

     iteration #  7     ecut=    50.00 Ry     beta= 0.40
     Davidson diagonalization with overlap

---- Real-time Memory Report at c_bands before calling an iterative solver
           710 MiB given to the printing process from OS
             0 MiB allocation reported by mallinfo(arena+hblkhd)
          5205 MiB available memory on the node where the printing process lives
------------------
     ethr =  4.49E-05,  avg # of iterations =  1.1

     negative rho (up, down):  1.239E-04 0.000E+00

     total cpu time spent up to now is       78.4 secs

     total energy              =    -504.17130085 Ry
     estimated scf accuracy    <       0.00014612 Ry

     iteration #  8     ecut=    50.00 Ry     beta= 0.40
     Davidson diagonalization with overlap

---- Real-time Memory Report at c_bands before calling an iterative solver
           711 MiB given to the printing process from OS
             0 MiB allocation reported by mallinfo(arena+hblkhd)
          5203 MiB available memory on the node where the printing process lives
------------------
     ethr =  5.41E-07,  avg # of iterations =  5.6

     negative rho (up, down):  1.298E-04 0.000E+00

     total cpu time spent up to now is       90.9 secs

     total energy              =    -504.17131072 Ry
     estimated scf accuracy    <       0.00003277 Ry

     iteration #  9     ecut=    50.00 Ry     beta= 0.40
     Davidson diagonalization with overlap

---- Real-time Memory Report at c_bands before calling an iterative solver
           714 MiB given to the printing process from OS
             0 MiB allocation reported by mallinfo(arena+hblkhd)
          5199 MiB available memory on the node where the printing process lives
------------------
     ethr =  1.21E-07,  avg # of iterations =  1.8

     negative rho (up, down):  1.335E-04 0.000E+00

     total cpu time spent up to now is       98.8 secs

     total energy              =    -504.17131593 Ry
     estimated scf accuracy    <       0.00001265 Ry

     iteration # 10     ecut=    50.00 Ry     beta= 0.40
     Davidson diagonalization with overlap

---- Real-time Memory Report at c_bands before calling an iterative solver
           716 MiB given to the printing process from OS
             0 MiB allocation reported by mallinfo(arena+hblkhd)
          5192 MiB available memory on the node where the printing process lives
------------------
     ethr =  4.69E-08,  avg # of iterations =  1.5

     negative rho (up, down):  1.346E-04 0.000E+00

     total cpu time spent up to now is      107.2 secs

     total energy              =    -504.17131798 Ry
     estimated scf accuracy    <       0.00000105 Ry

     iteration # 11     ecut=    50.00 Ry     beta= 0.40
     Davidson diagonalization with overlap

---- Real-time Memory Report at c_bands before calling an iterative solver
           716 MiB given to the printing process from OS
             0 MiB allocation reported by mallinfo(arena+hblkhd)
          5194 MiB available memory on the node where the printing process lives
------------------
     ethr =  3.87E-09,  avg # of iterations =  1.0

     negative rho (up, down):  1.353E-04 0.000E+00

     total cpu time spent up to now is      114.6 secs

     total energy              =    -504.17131767 Ry
     estimated scf accuracy    <       0.00000106 Ry

     iteration # 12     ecut=    50.00 Ry     beta= 0.40
     Davidson diagonalization with overlap

---- Real-time Memory Report at c_bands before calling an iterative solver
           716 MiB given to the printing process from OS
             0 MiB allocation reported by mallinfo(arena+hblkhd)
          5196 MiB available memory on the node where the printing process lives
------------------
     ethr =  3.87E-09,  avg # of iterations =  1.5

     negative rho (up, down):  1.357E-04 0.000E+00

     total cpu time spent up to now is      122.0 secs

     total energy              =    -504.17131786 Ry
     estimated scf accuracy    <       0.00000033 Ry

     iteration # 13     ecut=    50.00 Ry     beta= 0.40
     Davidson diagonalization with overlap

---- Real-time Memory Report at c_bands before calling an iterative solver
           716 MiB given to the printing process from OS
             0 MiB allocation reported by mallinfo(arena+hblkhd)
          5194 MiB available memory on the node where the printing process lives
------------------
     ethr =  1.21E-09,  avg # of iterations =  1.0

     negative rho (up, down):  1.362E-04 0.000E+00

     total cpu time spent up to now is      129.2 secs

     End of self-consistent calculation

          k = 0.0000 0.0000 0.0000 (  7831 PWs)   bands (ev):

  -127.8775 -82.0535 -82.0535 -82.0110 -20.0836  -9.8725  -9.4396  -8.6088
    -8.6088  -8.4601  -8.2018  -5.6448  -2.8224  -2.8224  -1.8141   1.1205
     1.4554   1.6553

     occupation numbers 
     1.0000   1.0000   1.0000   1.0000   1.0000   1.0000   1.0000   1.0000
     1.0000   1.0000   1.0000   1.0000   1.0193   1.0193   0.0000   0.0000
     0.0000   0.0000

          k = 0.0000 0.0833 0.0000 (  7841 PWs)   bands (ev):

  -127.8775 -82.0547 -82.0534 -82.0110 -20.0373  -9.7913  -9.4104  -8.6455
    -8.6045  -8.4829  -8.1787  -5.5494  -3.1209  -2.7953  -1.6910   1.2802
     1.5955   1.8001

     occupation numbers 
     1.0000   1.0000   1.0000   1.0000   1.0000   1.0000   1.0000   1.0000
     1.0000   1.0000   1.0000   1.0000   1.0000   1.0280   0.0000   0.0000
     0.0000   0.0000

          k = 0.0000 0.1667 0.0000 (  7857 PWs)   bands (ev):

  -127.8773 -82.0578 -82.0532 -82.0108 -19.9076  -9.6058  -9.2960  -8.7340
    -8.5995  -8.5375  -8.1066  -5.3433  -3.7126  -2.7217  -1.4063   1.7281
     2.0094   2.2315

     occupation numbers 
     1.0000   1.0000   1.0000   1.0000   1.0000   1.0000   1.0000   1.0000
     1.0000   1.0000   1.0000   1.0000   1.0000   1.0600   0.0000   0.0000
     0.0000   0.0000

          k = 0.0000 0.2500 0.0000 (  7881 PWs)   bands (ev):

  -127.8770 -82.0620 -82.0530 -82.0104 -19.7219  -9.4753  -9.0527  -8.8173
    -8.6498  -8.5528  -7.9654  -5.4240  -3.9080  -2.6218  -1.0263   2.4292
     2.6867   2.9422

     occupation numbers 
     1.0000   1.0000   1.0000   1.0000   1.0000   1.0000   1.0000   1.0000
     1.0000   1.0000   1.0000   1.0000   1.0000   1.0797   0.0000   0.0000
     0.0000   0.0000

          k = 0.0000 0.3333 0.0000 (  7882 PWs)   bands (ev):

  -127.8767 -82.0663 -82.0527 -82.0101 -19.5252  -9.4237  -8.9562  -8.7380
    -8.7293  -8.5364  -7.7010  -5.9412  -3.3607  -2.5224  -0.6471   3.1712
     3.3529   3.6978

     occupation numbers 
     1.0000   1.0000   1.0000   1.0000   1.0000   1.0000   1.0000   1.0000
     1.0000   1.0000   1.0000   1.0000   1.0000   0.9483   0.0000   0.0000
     0.0000   0.0000

          k = 0.0000 0.4167 0.0000 (  7900 PWs)   bands (ev):

  -127.8765 -82.0694 -82.0525 -82.0099 -19.3732  -9.4113  -8.9764  -8.7883
    -8.6559  -8.5221  -7.3348  -6.4238  -2.4498  -2.4450  -0.5909   1.7581
     4.2895   4.7794

     occupation numbers 
     1.0000   1.0000   1.0000   1.0000   1.0000   1.0000   1.0000   1.0000
     1.0000   1.0000   1.0000   1.0000   0.7230   0.7055   0.0000   0.0000
     0.0000   0.0000

          k = 0.0000-0.5000 0.0000 (  7920 PWs)   bands (ev):

  -127.8764 -82.0706 -82.0524 -82.0098 -19.3156  -9.4113  -8.9824  -8.8098
    -8.6467  -8.5168  -7.0928  -6.6750  -2.4233  -1.3916  -1.3326   1.3292
     4.3835   5.7121

     occupation numbers 
     1.0000   1.0000   1.0000   1.0000   1.0000   1.0000   1.0000   1.0000
     1.0000   1.0000   1.0000   1.0000   0.6246   0.0000   0.0000   0.0000
     0.0000   0.0000

          k = 0.0833 0.0833 0.0000 (  7870 PWs)   bands (ev):

  -127.8774 -82.0546 -82.0546 -82.0109 -19.9915  -9.7095  -9.3843  -8.6412
    -8.6390  -8.5095  -8.1504  -5.4642  -3.1554  -2.9964  -1.5802   1.4356
     1.7348   1.9447

     occupation numbers 
     1.0000   1.0000   1.0000   1.0000   1.0000   1.0000   1.0000   1.0000
     1.0000   1.0000   1.0000   1.0000   1.0000   1.0007   0.0000   0.0000
     0.0000   0.0000

          k = 0.0833 0.1667 0.0000 (  7854 PWs)   bands (ev):

  -127.8772 -82.0577 -82.0544 -82.0107 -19.8632  -9.5235  -9.2796  -8.7271
    -8.6309  -8.5724  -8.0642  -5.2902  -3.6419  -2.9549  -1.3077   1.8762
     2.1470   2.3754

     occupation numbers 
     1.0000   1.0000   1.0000   1.0000   1.0000   1.0000   1.0000   1.0000
     1.0000   1.0000   1.0000   1.0000   1.0000   1.0017   0.0000   0.0000
     0.0000   0.0000

          k = 0.0833 0.2500 0.0000 (  7876 PWs)   bands (ev):

  -127.8769 -82.0619 -82.0541 -82.0103 -19.6797  -9.4015  -9.0489  -8.8154
    -8.6753  -8.5916  -7.8990  -5.3926  -3.8189  -2.8144  -0.9331   2.5709
     2.8225   3.0857

     occupation numbers 
     1.0000   1.0000   1.0000   1.0000   1.0000   1.0000   1.0000   1.0000
     1.0000   1.0000   1.0000   1.0000   1.0000   1.0216   0.0000   0.0000
     0.0000   0.0000

          k = 0.0833 0.3333 0.0000 (  7864 PWs)   bands (ev):

  -127.8766 -82.0662 -82.0538 -82.0100 -19.4854  -9.3518  -8.9528  -8.8271
    -8.6898  -8.5768  -7.6073  -5.8852  -3.3569  -2.6257  -0.5509   3.2811
     3.4901   3.8305

     occupation numbers 
     1.0000   1.0000   1.0000   1.0000   1.0000   1.0000   1.0000   1.0000
     1.0000   1.0000   1.0000   1.0000   1.0000   1.0809   0.0000   0.0000
     0.0000   0.0000

          k = 0.0833 0.4167 0.0000 (  7894 PWs)   bands (ev):

  -127.8764 -82.0693 -82.0536 -82.0098 -19.3352  -9.3372  -8.9746  -8.8635
    -8.6533  -8.5553  -7.2289  -6.3499  -2.8504  -2.1509  -0.4682   1.8465
     4.4251   4.8957

     occupation numbers 
     1.0000   1.0000   1.0000   1.0000   1.0000   1.0000   1.0000   1.0000
     1.0000   1.0000   1.0000   1.0000   1.0126   0.0241   0.0000   0.0000
     0.0000   0.0000

          k = 0.0833-0.5000 0.0000 (  7904 PWs)   bands (ev):

  -127.8763 -82.0705 -82.0535 -82.0097 -19.2784  -9.3358  -8.9839  -8.8800
    -8.6567  -8.5432  -6.9812  -6.5994  -2.7359  -1.2172  -1.1581   1.3970
     4.5238   5.7843

     occupation numbers 
     1.0000   1.0000   1.0000   1.0000   1.0000   1.0000   1.0000   1.0000
     1.0000   1.0000   1.0000   1.0000   1.0533   0.0000   0.0000   0.0000
     0.0000   0.0000

          k = 0.1667 0.1667 0.0000 (  7864 PWs)   bands (ev):

  -127.8770 -82.0576 -82.0574 -82.0104 -19.7391  -9.3227  -9.2222  -8.7227
    -8.6991  -8.6540  -7.9381  -5.2014  -3.4539  -3.4247  -1.0483   2.3035
     2.5556   2.8048

     occupation numbers 
     1.0000   1.0000   1.0000   1.0000   1.0000   1.0000   1.0000   1.0000
     1.0000   1.0000   1.0000   1.0000   1.0000   1.0000   0.0000   0.0000
     0.0000   0.0000

          k = 0.1667 0.2500 0.0000 (  7859 PWs)   bands (ev):

  -127.8767 -82.0617 -82.0572 -82.0101 -19.5616  -9.2152  -9.0443  -8.8173
    -8.7190  -8.6875  -7.7101  -5.3230  -3.7352  -3.0800  -0.6792   2.9819
     3.2282   3.5140

     occupation numbers 
     1.0000   1.0000   1.0000   1.0000   1.0000   1.0000   1.0000   1.0000
     1.0000   1.0000   1.0000   1.0000   1.0000   1.0001   0.0000   0.0000
     0.0000   0.0000

          k = 0.1667 0.3333 0.0000 (  7846 PWs)   bands (ev):

  -127.8764 -82.0659 -82.0568 -82.0098 -19.3740  -9.1704  -8.9817  -8.9154
    -8.6912  -8.6548  -7.3602  -5.7346  -3.6340  -2.5428  -0.2875   3.5837
     3.8940   4.2207

     occupation numbers 
     1.0000   1.0000   1.0000   1.0000   1.0000   1.0000   1.0000   1.0000
     1.0000   1.0000   1.0000   1.0000   1.0000   0.9931   0.0000   0.0000
     0.0000   0.0000

          k = 0.1667 0.4167 0.0000 (  7870 PWs)   bands (ev):

  -127.8762 -82.0690 -82.0566 -82.0095 -19.2292  -9.1455  -9.0183  -8.9732
    -8.7130  -8.5793  -6.9597  -6.1478  -3.4504  -1.7591  -0.1441   2.0979
     4.8243   5.2214

     occupation numbers 
     1.0000   1.0000   1.0000   1.0000   1.0000   1.0000   1.0000   1.0000
     1.0000   1.0000   1.0000   1.0000   1.0000   0.0000   0.0000   0.0000
     0.0000   0.0000

          k = 0.1667-0.5000 0.0000 (  7874 PWs)   bands (ev):

  -127.8761 -82.0702 -82.0565 -82.0095 -19.1745  -9.1334  -9.0519  -8.9807
    -8.7294  -8.5557  -6.7027  -6.3881  -3.3750  -0.8755  -0.6870   1.5886
     4.9393   5.9627

     occupation numbers 
     1.0000   1.0000   1.0000   1.0000   1.0000   1.0000   1.0000   1.0000
     1.0000   1.0000   1.0000   1.0000   1.0000   0.0000   0.0000   0.0000
     0.0000   0.0000

          k = 0.2500 0.2500 0.0000 (  7842 PWs)   bands (ev):

  -127.8764 -82.0614 -82.0612 -82.0098 -19.3931  -9.1042  -8.9846  -8.8241
    -8.7934  -8.7195  -7.4065  -5.3200  -4.0497  -2.7352  -0.3104   3.6306
     3.8998   4.2221

     occupation numbers 
     1.0000   1.0000   1.0000   1.0000   1.0000   1.0000   1.0000   1.0000
     1.0000   1.0000   1.0000   1.0000   1.0000   1.0536   0.0000   0.0000
     0.0000   0.0000

          k = 0.2500 0.3333 0.0000 (  7834 PWs)   bands (ev):

  -127.8761 -82.0656 -82.0610 -82.0094 -19.2153  -9.1519  -8.9626  -8.8719
    -8.7823  -8.6435  -7.0092  -5.5394  -4.1934  -2.0611   0.0937   4.0079
     4.5094   4.8457

     occupation numbers 
     1.0000   1.0000   1.0000   1.0000   1.0000   1.0000   1.0000   1.0000
     1.0000   1.0000   1.0000   1.0000   1.0000   0.0039   0.0000   0.0000
     0.0000   0.0000

          k = 0.2500 0.4167 0.0000 (  7841 PWs)   bands (ev):

  -127.8759 -82.0687 -82.0608 -82.0092 -19.0785  -9.2028  -8.9994  -8.9099
    -8.7815  -8.5527  -6.6028  -5.8621  -4.1261  -1.1920   0.3093   2.4833
     5.4443   5.6443

     occupation numbers 
     1.0000   1.0000   1.0000   1.0000   1.0000   1.0000   1.0000   1.0000
     1.0000   1.0000   1.0000   1.0000   1.0000   0.0000   0.0000   0.0000
     0.0000   0.0000

          k = 0.2500-0.5000 0.0000 (  7850 PWs)   bands (ev):

  -127.8759 -82.0698 -82.0607 -82.0091 -19.0269  -9.2230  -9.0061  -8.9379
    -8.7815  -8.5218  -6.3541  -6.0739  -4.0762  -0.3182  -0.1035   1.8804
     5.5787   6.1245

     occupation numbers 
     1.0000   1.0000   1.0000   1.0000   1.0000   1.0000   1.0000   1.0000
     1.0000   1.0000   1.0000   1.0000   1.0000   0.0000   0.0000   0.0000
     0.0000   0.0000

          k = 0.3333 0.3333 0.0000 (  7832 PWs)   bands (ev):

  -127.8758 -82.0653 -82.0651 -82.0091 -19.0483  -9.2619  -8.9977  -8.9104
    -8.6261  -8.6237  -6.6031  -5.4204  -4.6357  -1.3430   0.5161   4.1070
     5.0185   5.5604

     occupation numbers 
     1.0000   1.0000   1.0000   1.0000   1.0000   1.0000   1.0000   1.0000
     1.0000   1.0000   1.0000   1.0000   1.0000   0.0000   0.0000   0.0000
     0.0000   0.0000

          k = 0.3333 0.4167 0.0000 (  7838 PWs)   bands (ev):

  -127.8756 -82.0683 -82.0650 -82.0089 -18.9201  -9.3353  -9.0427  -8.9795
    -8.6116  -8.4789  -6.2244  -5.5528  -4.7180  -0.4460   0.8057   2.9424
     5.3290   6.2537

     occupation numbers 
     1.0000   1.0000   1.0000   1.0000   1.0000   1.0000   1.0000   1.0000
     1.0000   1.0000   1.0000   1.0000   1.0000   0.0000   0.0000   0.0000
     0.0000   0.0000

          k = 0.3333-0.5000 0.0000 (  7856 PWs)   bands (ev):

  -127.8756 -82.0694 -82.0649 -82.0088 -18.8718  -9.3601  -9.0512  -9.0182
    -8.6063  -8.4298  -6.0166  -5.7076  -4.6845   0.4452   0.5253   2.2440
     5.4681   6.6221

     occupation numbers 
     1.0000   1.0000   1.0000   1.0000   1.0000   1.0000   1.0000   1.0000
     1.0000   1.0000   1.0000   1.0000   1.0000   0.0000   0.0000   0.0000
     0.0000   0.0000

          k = 0.4167 0.4167 0.0000 (  7842 PWs)   bands (ev):

  -127.8754 -82.0681 -82.0680 -82.0086 -18.7987  -9.4153  -9.0929  -9.0590
    -8.5512  -8.3372  -5.9065  -5.3407  -5.0832   0.4379   1.2197   3.1314
     4.2199   6.4867

     occupation numbers 
     1.0000   1.0000   1.0000   1.0000   1.0000   1.0000   1.0000   1.0000
     1.0000   1.0000   1.0000   1.0000   1.0000   0.0000   0.0000   0.0000
     0.0000   0.0000

          k = 0.4167-0.5000 0.0000 (  7830 PWs)   bands (ev):

  -127.8754 -82.0691 -82.0679 -82.0085 -18.7530  -9.4408  -9.1046  -9.1002
    -8.5393  -8.2771  -5.7581  -5.3890  -5.0994   1.0493   1.4151   2.6142
     4.0757   6.5045

     occupation numbers 
     1.0000   1.0000   1.0000   1.0000   1.0000   1.0000   1.0000   1.0000
     1.0000   1.0000   1.0000   1.0000   1.0000   0.0000   0.0000   0.0000
     0.0000   0.0000

          k =-0.5000-0.5000 0.0000 (  7904 PWs)   bands (ev):

  -127.8753 -82.0691 -82.0691 -82.0085 -18.7084  -9.4660  -9.1299  -9.1299
    -8.5252  -8.2117  -5.6479  -5.2583  -5.2583   1.2587   2.4644   2.7969
     2.7969   6.3960

     occupation numbers 
     1.0000   1.0000   1.0000   1.0000   1.0000   1.0000   1.0000   1.0000
     1.0000   1.0000   1.0000   1.0000   1.0000   0.0000   0.0000   0.0000
     0.0000   0.0000

     the Fermi energy is    -2.3622 ev

!    total energy              =    -504.17131788 Ry
     estimated scf accuracy    <          7.2E-09 Ry
     smearing contrib. (-TS)   =       0.00081601 Ry
     internal energy E=F+TS    =    -504.17213389 Ry

     The total energy is F=E-TS. E is the sum of the following terms:
     one-electron contribution =   -2816.31502187 Ry
     hartree contribution      =    1407.15065507 Ry
     xc contribution           =     -49.96587432 Ry
     ewald contribution        =     964.49908996 Ry
     one-center paw contrib.   =      -9.54098272 Ry
      -> PAW hartree energy AE =      24.32507762 Ry
      -> PAW hartree energy PS =     -24.21939418 Ry
      -> PAW xc energy AE      =     -16.39824423 Ry
      -> PAW xc energy PS      =       6.75157808 Ry
      -> total E_H with PAW    =    1407.25633851 Ry
      -> total E_XC with PAW   =     -59.61254048 Ry

     convergence has been achieved in  13 iterations

     negative rho (up, down):  1.362E-04 0.000E+00

     Forces acting on atoms (cartesian axes, Ry/au):

     atom    1 type  2   force =     0.00000000    0.00000000    0.09512124
     atom    2 type  1   force =     0.00000000    0.00000000    0.08761006
     atom    3 type  3   force =     0.00000000    0.00000000   -0.18273130
     The non-local contrib.  to forces
     atom    1 type  2   force =     0.00000000    0.00000000   -0.44985975
     atom    2 type  1   force =     0.00000000    0.00000000    0.59007599
     atom    3 type  3   force =     0.00000000    0.00000000   -0.01842296
     The ionic contribution  to forces
     atom    1 type  2   force =    -0.00000000   -0.00000000  -52.79174260
     atom    2 type  1   force =     0.00000000    0.00000000   42.09570586
     atom    3 type  3   force =    -0.00000000   -0.00000000   10.69603674
     The local contribution  to forces
     atom    1 type  2   force =     0.00000000    0.00000000   53.33758527
     atom    2 type  1   force =     0.00000000    0.00000000  -42.58961217
     atom    3 type  3   force =     0.00000000    0.00000000  -10.86051940
     The core correction contribution to forces
     atom    1 type  2   force =     0.00000000    0.00000000    0.00000000
     atom    2 type  1   force =    -0.00000000    0.00000000   -0.00866888
     atom    3 type  3   force =     0.00000000    0.00000000    0.00000000
     The Hubbard contrib.    to forces
     atom    1 type  2   force =     0.00000000    0.00000000    0.00000000
     atom    2 type  1   force =     0.00000000    0.00000000    0.00000000
     atom    3 type  3   force =     0.00000000    0.00000000    0.00000000
     The SCF correction term to forces
     atom    1 type  2   force =     0.00000000    0.00000000   -0.00101964
     atom    2 type  1   force =     0.00000000    0.00000000   -0.00004871
     atom    3 type  3   force =     0.00000000   -0.00000000    0.00001636

     Total force =     0.223862     Total SCF correction =     0.001021


     Computing stress (Cartesian axis) and pressure


     negative rho (up, down):  1.362E-04 0.000E+00
          total   stress  (Ry/bohr**3)                   (kbar)     P=      -25.76
   0.00002622   0.00000000   0.00000000            3.86        0.00        0.00
   0.00000000   0.00002622   0.00000000            0.00        3.86        0.00
   0.00000000   0.00000000  -0.00057783            0.00        0.00      -85.00

     kinetic stress (kbar)   4345.76      0.00      0.00
                                0.00   4345.76      0.00
                                0.00      0.00   4117.13

     local   stress (kbar)-272845.99      0.00      0.00
                                0.00-272845.99     -0.00
                                0.00     -0.00 273338.25

     nonloc. stress (kbar)    -77.90      0.00      0.00
                                0.00    -77.90      0.00
                                0.00      0.00    -79.24

     hartree stress (kbar) 142528.72     -0.00     -0.00
                               -0.00 142528.72      0.00
                               -0.00      0.00-127798.19

     exc-cor stress (kbar)  -1734.48     -0.00     -0.00
                               -0.00  -1734.48     -0.00
                               -0.00     -0.00  -1735.08

     corecor stress (kbar)    -47.70     -0.00     -0.00
                               -0.00    -47.70     -0.00
                               -0.00     -0.00    -46.72

     ewald   stress (kbar) 127835.45      0.00     -0.00
                                0.00 127835.45     -0.00
                               -0.00     -0.00-147881.17

     hubbard stress (kbar)      0.00      0.00      0.00
                                0.00      0.00      0.00
                                0.00      0.00      0.00

     DFT-D   stress (kbar)      0.00      0.00      0.00
                                0.00      0.00      0.00
                                0.00      0.00      0.00

     XDM     stress (kbar)      0.00      0.00      0.00
                                0.00      0.00      0.00
                                0.00      0.00      0.00

     dft-nl  stress (kbar)      0.00      0.00      0.00
                                0.00      0.00      0.00
                                0.00      0.00      0.00

     TS-vdW  stress (kbar)      0.00      0.00      0.00
                                0.00      0.00      0.00
                                0.00      0.00      0.00

     MDB     stress (kbar)      0.00      0.00      0.00
                                0.00      0.00      0.00
                                0.00      0.00      0.00

     3D-RISM stress (kbar)      0.00      0.00      0.00
                                0.00      0.00      0.00
                                0.00      0.00      0.00


     Writing all to output data dir ./temp_cubic/aiida.save/ :
     XML data file, charge density, pseudopotentials, collected wavefunctions

     init_run     :     67.47s CPU      3.69s WALL (       1 calls)
     electrons    :   2477.13s CPU    125.18s WALL (       1 calls)
     forces       :     35.50s CPU      1.98s WALL (       1 calls)
     stress       :     34.89s CPU      4.23s WALL (       1 calls)

     Called by init_run:
     wfcinit      :     61.83s CPU      2.79s WALL (       1 calls)
     wfcinit:atom :      0.34s CPU      0.03s WALL (      28 calls)
     wfcinit:wfcr :     57.73s CPU      2.55s WALL (      28 calls)
     potinit      :      1.63s CPU      0.15s WALL (       1 calls)
     hinit0       :      1.57s CPU      0.29s WALL (       1 calls)

     Called by electrons:
     c_bands      :   2050.95s CPU     96.96s WALL (      13 calls)
     sum_band     :    379.02s CPU     21.43s WALL (      13 calls)
     v_of_rho     :     13.47s CPU      1.10s WALL (      14 calls)
     v_h          :      2.32s CPU      0.15s WALL (      14 calls)
     v_xc         :     12.65s CPU      1.08s WALL (      16 calls)
     newd         :     19.28s CPU      5.27s WALL (      14 calls)
     PAW_pot      :      6.87s CPU      0.33s WALL (      14 calls)
     mix_rho      :      5.55s CPU      0.31s WALL (      13 calls)

     Called by c_bands:
     init_us_2    :     25.81s CPU      1.66s WALL (     812 calls)
     cegterg      :   2021.12s CPU     94.83s WALL (     364 calls)

     Called by sum_band:
     sum_band:wei :      0.02s CPU      0.00s WALL (      13 calls)
     sum_band:loo :    367.24s CPU     15.46s WALL (      13 calls)
     sum_band:buf :      2.13s CPU      0.09s WALL (     364 calls)
     sum_band:ini :     11.36s CPU      0.57s WALL (     364 calls)
     sum_band:cal :     60.41s CPU      2.14s WALL (     364 calls)
     sum_band:bec :     10.90s CPU      0.55s WALL (     364 calls)
     addusdens    :     10.06s CPU      5.72s WALL (      13 calls)
                                        0.00s GPU  (      13 calls)
     addusd:skk   :      0.06s CPU      0.01s WALL (      39 calls)
                                        0.00s GPU  (      39 calls)

     Called by *egterg:
     cdiaghg      :      5.65s CPU      0.35s WALL (    1375 calls)
     cegterg:over :     97.25s CPU      5.25s WALL (    1011 calls)
     cegterg:upda :     53.73s CPU      4.33s WALL (    1011 calls)
     cegterg:last :     35.21s CPU      5.23s WALL (     583 calls)
     h_psi        :   1678.42s CPU     71.65s WALL (    1403 calls)
     s_psi        :     95.27s CPU      4.99s WALL (    1403 calls)
     g_psi        :     15.06s CPU      0.80s WALL (    1011 calls)

     Called by h_psi:
     h_psi:calbec :    138.22s CPU      5.02s WALL (    1403 calls)
     vloc_psi     :   1413.10s CPU     60.69s WALL (    1403 calls)
     add_vuspsi   :    104.84s CPU      4.82s WALL (    1403 calls)

     General routines
     calbec       :    219.47s CPU      8.00s WALL (    1907 calls)
     fft          :     14.31s CPU      1.02s WALL (     205 calls)
     ffts         :      0.84s CPU      0.05s WALL (      27 calls)
     fftw         :    823.61s CPU     36.31s WALL (   36800 calls)
     interpolate  :      2.48s CPU      0.12s WALL (      14 calls)

     Parallel routines

     PAW routines
     PAW_pot      :      6.87s CPU      0.33s WALL (      14 calls)
     PAW_symme    :      0.00s CPU      0.00s WALL (      27 calls)

     PWSCF        :  43m45.01s CPU   2m16.39s WALL


   This run was terminated on:  20:39:49  14Jun2024            

=------------------------------------------------------------------------------=
   JOB DONE.
=------------------------------------------------------------------------------=
