
     Program PWSCF v.7.3.1 starts on 14Jun2024 at 20:40:46 

     This program is part of the open-source Quantum ESPRESSO suite
     for quantum simulation of materials; please cite
         "P. Giannozzi et al., J. Phys.:Condens. Matter 21 395502 (2009);
         "P. Giannozzi et al., J. Phys.:Condens. Matter 29 465901 (2017);
         "P. Giannozzi et al., J. Chem. Phys. 152 154105 (2020);
          URL http://www.quantum-espresso.org", 
     in publications or presentations arising from this work. More details at
     http://www.quantum-espresso.org/quote

     Parallel version (MPI & OpenMP), running on      24 processor cores
     Number of MPI processes:                 1
     Threads/MPI process:                    24

     MPI processes distributed on     1 nodes
     5437 MiB available memory on the printing compute node when the environment starts

     Waiting for input...
     Reading input from standard input

     Current dimensions of program PWSCF are:
     Max number of different atomic species (ntypx) = 10
     Max number of k-points (npk) =  40000
     Max angular momentum in pseudopotentials (lmaxx) =  4
     file O.pbe-n-kjpaw_psl.0.1.UPF: wavefunction(s)  2P renormalized
     Message from routine setup:
     using ibrav=0 with symmetry is DISCOURAGED, use correct ibrav instead

     Subspace diagonalization in iterative solution of the eigenvalue problem:
     a serial algorithm will be used


     G-vector sticks info
     --------------------
     sticks:   dense  smooth     PW     G-vecs:    dense   smooth      PW
     Sum         829     421    137               177743    63081   11257

     Using Slab Decomposition



     bravais-lattice index     =            0
     lattice parameter (alat)  =       5.0869  a.u.
     unit-cell volume          =    1316.2915 (a.u.)^3
     number of atoms/cell      =            3
     number of atomic types    =            3
     number of electrons       =        27.00
     number of Kohn-Sham states=           18
     kinetic-energy cutoff     =      50.0000  Ry
     charge density cutoff     =     400.0000  Ry
     scf convergence threshold =      1.0E-08
     mixing beta               =       0.4000
     number of iterations used =            8  plain     mixing
     Exchange-correlation= PBE
                           (   1   4   3   4   0   0   0)

     celldm(1)=   5.086871  celldm(2)=   0.000000  celldm(3)=   0.000000
     celldm(4)=   0.000000  celldm(5)=   0.000000  celldm(6)=   0.000000

     crystal axes: (cart. coord. in units of alat)
               a(1) = (   1.000000   0.000000   0.000000 )  
               a(2) = (   0.000000   1.000000   0.000000 )  
               a(3) = (   0.000000   0.000000  10.000000 )  

     reciprocal axes: (cart. coord. in units 2 pi/alat)
               b(1) = (  1.000000  0.000000  0.000000 )  
               b(2) = (  0.000000  1.000000  0.000000 )  
               b(3) = (  0.000000  0.000000  0.100000 )  


     PseudoPot. # 1 for O  read from file:
     ../SSSP_1.3.0_PBE_efficiency/O.pbe-n-kjpaw_psl.0.1.UPF
     MD5 check sum: 0234752ac141de4415c5fc33072bef88
     Pseudo is Projector augmented-wave + core cor, Zval =  6.0
     Generated using "atomic" code by A. Dal Corso  v.5.0.99 svn rev. 10869
     Shape of augmentation charge: BESSEL
     Using radial grid of 1095 points,  4 beta functions with: 
                l(1) =   0
                l(2) =   0
                l(3) =   1
                l(4) =   1
     Q(r) pseudized with 0 coefficients 


     PseudoPot. # 2 for Zn read from file:
     ../SSSP_1.3.0_PBE_efficiency/Zn_pbe_v1.uspp.F.UPF
     MD5 check sum: df62231357ef9e81f77b2b3087fa5675
     Pseudo is Ultrasoft, Zval = 20.0
     Generated by new atomic code, or converted to UPF format
     Using radial grid of  943 points,  6 beta functions with: 
                l(1) =   0
                l(2) =   0
                l(3) =   1
                l(4) =   1
                l(5) =   2
                l(6) =   2
     Q(r) pseudized with  8 coefficients,  rinner =    1.100   1.100   1.100
                                                       1.100   1.100

     PseudoPot. # 3 for H  read from file:
     ../SSSP_1.3.0_PBE_efficiency/H.pbe-rrkjus_psl.1.0.0.UPF
     MD5 check sum: f52b6d4d1c606e5624b1dc7b2218f220
     Pseudo is Ultrasoft, Zval =  1.0
     Generated using "atomic" code by A. Dal Corso  v.5.1
     Using radial grid of  929 points,  2 beta functions with: 
                l(1) =   0
                l(2) =   0
     Q(r) pseudized with 0 coefficients 


     atomic species   valence    mass     pseudopotential
     O                 6.00    15.99940     O ( 1.00)
     Zn               20.00    65.38000     Zn( 1.00)
     H                 1.00     1.00794     H ( 1.00)

      8 Sym. Ops. (no inversion) found


                                    s                        frac. trans.

      isym =  1     identity                                     

 cryst.   s( 1) = (     1          0          0      )
                  (     0          1          0      )
                  (     0          0          1      )

 cart.    s( 1) = (  1.0000000  0.0000000  0.0000000 )
                  (  0.0000000  1.0000000  0.0000000 )
                  (  0.0000000  0.0000000  1.0000000 )


      isym =  2     180 deg rotation - cart. axis [0,0,1]        

 cryst.   s( 2) = (    -1          0          0      )
                  (     0         -1          0      )
                  (     0          0          1      )

 cart.    s( 2) = ( -1.0000000  0.0000000  0.0000000 )
                  (  0.0000000 -1.0000000  0.0000000 )
                  (  0.0000000  0.0000000  1.0000000 )


      isym =  3      90 deg rotation - cart. axis [0,0,-1]       

 cryst.   s( 3) = (     0         -1          0      )
                  (     1          0          0      )
                  (     0          0          1      )

 cart.    s( 3) = (  0.0000000  1.0000000  0.0000000 )
                  ( -1.0000000  0.0000000  0.0000000 )
                  (  0.0000000  0.0000000  1.0000000 )


      isym =  4      90 deg rotation - cart. axis [0,0,1]        

 cryst.   s( 4) = (     0          1          0      )
                  (    -1          0          0      )
                  (     0          0          1      )

 cart.    s( 4) = (  0.0000000 -1.0000000  0.0000000 )
                  (  1.0000000  0.0000000  0.0000000 )
                  (  0.0000000  0.0000000  1.0000000 )


      isym =  5     inv. 180 deg rotation - cart. axis [0,1,0]   

 cryst.   s( 5) = (     1          0          0      )
                  (     0         -1          0      )
                  (     0          0          1      )

 cart.    s( 5) = (  1.0000000  0.0000000  0.0000000 )
                  (  0.0000000 -1.0000000  0.0000000 )
                  (  0.0000000  0.0000000  1.0000000 )


      isym =  6     inv. 180 deg rotation - cart. axis [1,0,0]   

 cryst.   s( 6) = (    -1          0          0      )
                  (     0          1          0      )
                  (     0          0          1      )

 cart.    s( 6) = ( -1.0000000  0.0000000  0.0000000 )
                  (  0.0000000  1.0000000  0.0000000 )
                  (  0.0000000  0.0000000  1.0000000 )


      isym =  7     inv. 180 deg rotation - cart. axis [1,1,0]   

 cryst.   s( 7) = (     0         -1          0      )
                  (    -1          0          0      )
                  (     0          0          1      )

 cart.    s( 7) = (  0.0000000 -1.0000000  0.0000000 )
                  ( -1.0000000  0.0000000  0.0000000 )
                  (  0.0000000  0.0000000  1.0000000 )


      isym =  8     inv. 180 deg rotation - cart. axis [1,-1,0]  

 cryst.   s( 8) = (     0          1          0      )
                  (     1          0          0      )
                  (     0          0          1      )

 cart.    s( 8) = (  0.0000000  1.0000000  0.0000000 )
                  (  1.0000000  0.0000000  0.0000000 )
                  (  0.0000000  0.0000000  1.0000000 )


   Cartesian axes

     site n.     atom                  positions (alat units)
         1        Zn     tau(   1) = (   0.0000000   0.0000000   0.0000000  )
         2        O      tau(   2) = (   0.5000000   0.5000000   0.5000000  )
         3        H      tau(   3) = (   0.5000000   0.5000000   1.1000000  )

   Crystallographic axes

     site n.     atom                  positions (cryst. coord.)
         1        Zn     tau(   1) = (  0.0000000  0.0000000  0.0000000  )
         2        O      tau(   2) = (  0.5000000  0.5000000  0.0500000  )
         3        H      tau(   3) = (  0.5000000  0.5000000  0.1100000  )

     number of k points=    28  Marzari-Vanderbilt smearing, width (Ry)=  0.0147
                       cart. coord. in units 2pi/alat
        k(    1) = (   0.0000000   0.0000000   0.0000000), wk =   0.0138889
        k(    2) = (   0.0000000   0.0833333   0.0000000), wk =   0.0555556
        k(    3) = (   0.0000000   0.1666667   0.0000000), wk =   0.0555556
        k(    4) = (   0.0000000   0.2500000   0.0000000), wk =   0.0555556
        k(    5) = (   0.0000000   0.3333333   0.0000000), wk =   0.0555556
        k(    6) = (   0.0000000   0.4166667   0.0000000), wk =   0.0555556
        k(    7) = (   0.0000000  -0.5000000   0.0000000), wk =   0.0277778
        k(    8) = (   0.0833333   0.0833333   0.0000000), wk =   0.0555556
        k(    9) = (   0.0833333   0.1666667   0.0000000), wk =   0.1111111
        k(   10) = (   0.0833333   0.2500000   0.0000000), wk =   0.1111111
        k(   11) = (   0.0833333   0.3333333   0.0000000), wk =   0.1111111
        k(   12) = (   0.0833333   0.4166667   0.0000000), wk =   0.1111111
        k(   13) = (   0.0833333  -0.5000000   0.0000000), wk =   0.0555556
        k(   14) = (   0.1666667   0.1666667   0.0000000), wk =   0.0555556
        k(   15) = (   0.1666667   0.2500000   0.0000000), wk =   0.1111111
        k(   16) = (   0.1666667   0.3333333   0.0000000), wk =   0.1111111
        k(   17) = (   0.1666667   0.4166667   0.0000000), wk =   0.1111111
        k(   18) = (   0.1666667  -0.5000000   0.0000000), wk =   0.0555556
        k(   19) = (   0.2500000   0.2500000   0.0000000), wk =   0.0555556
        k(   20) = (   0.2500000   0.3333333   0.0000000), wk =   0.1111111
        k(   21) = (   0.2500000   0.4166667   0.0000000), wk =   0.1111111
        k(   22) = (   0.2500000  -0.5000000   0.0000000), wk =   0.0555556
        k(   23) = (   0.3333333   0.3333333   0.0000000), wk =   0.0555556
        k(   24) = (   0.3333333   0.4166667   0.0000000), wk =   0.1111111
        k(   25) = (   0.3333333  -0.5000000   0.0000000), wk =   0.0555556
        k(   26) = (   0.4166667   0.4166667   0.0000000), wk =   0.0555556
        k(   27) = (   0.4166667  -0.5000000   0.0000000), wk =   0.0555556
        k(   28) = (  -0.5000000  -0.5000000   0.0000000), wk =   0.0138889

                       cryst. coord.
        k(    1) = (   0.0000000   0.0000000   0.0000000), wk =   0.0138889
        k(    2) = (   0.0000000   0.0833333   0.0000000), wk =   0.0555556
        k(    3) = (   0.0000000   0.1666667   0.0000000), wk =   0.0555556
        k(    4) = (   0.0000000   0.2500000   0.0000000), wk =   0.0555556
        k(    5) = (   0.0000000   0.3333333   0.0000000), wk =   0.0555556
        k(    6) = (   0.0000000   0.4166667   0.0000000), wk =   0.0555556
        k(    7) = (   0.0000000  -0.5000000   0.0000000), wk =   0.0277778
        k(    8) = (   0.0833333   0.0833333   0.0000000), wk =   0.0555556
        k(    9) = (   0.0833333   0.1666667   0.0000000), wk =   0.1111111
        k(   10) = (   0.0833333   0.2500000   0.0000000), wk =   0.1111111
        k(   11) = (   0.0833333   0.3333333   0.0000000), wk =   0.1111111
        k(   12) = (   0.0833333   0.4166667   0.0000000), wk =   0.1111111
        k(   13) = (   0.0833333  -0.5000000   0.0000000), wk =   0.0555556
        k(   14) = (   0.1666667   0.1666667   0.0000000), wk =   0.0555556
        k(   15) = (   0.1666667   0.2500000   0.0000000), wk =   0.1111111
        k(   16) = (   0.1666667   0.3333333   0.0000000), wk =   0.1111111
        k(   17) = (   0.1666667   0.4166667   0.0000000), wk =   0.1111111
        k(   18) = (   0.1666667  -0.5000000   0.0000000), wk =   0.0555556
        k(   19) = (   0.2500000   0.2500000   0.0000000), wk =   0.0555556
        k(   20) = (   0.2500000   0.3333333   0.0000000), wk =   0.1111111
        k(   21) = (   0.2500000   0.4166667   0.0000000), wk =   0.1111111
        k(   22) = (   0.2500000  -0.5000000   0.0000000), wk =   0.0555556
        k(   23) = (   0.3333333   0.3333333   0.0000000), wk =   0.0555556
        k(   24) = (   0.3333333   0.4166667   0.0000000), wk =   0.1111111
        k(   25) = (   0.3333333  -0.5000000   0.0000000), wk =   0.0555556
        k(   26) = (   0.4166667   0.4166667   0.0000000), wk =   0.0555556
        k(   27) = (   0.4166667  -0.5000000   0.0000000), wk =   0.0555556
        k(   28) = (  -0.5000000  -0.5000000   0.0000000), wk =   0.0138889

     Dense  grid:   177743 G-vectors     FFT dimensions: (  36,  36, 324)

     Smooth grid:    63081 G-vectors     FFT dimensions: (  24,  24, 240)

     Dynamical RAM for                 wfc:       2.16 MB

     Dynamical RAM for     wfc (w. buffer):      62.60 MB

     Dynamical RAM for           str. fact:       8.14 MB

     Dynamical RAM for           local pot:       0.00 MB

     Dynamical RAM for          nlocal pot:       3.36 MB

     Dynamical RAM for                qrad:       4.82 MB

     Dynamical RAM for          rho,v,vnew:      17.75 MB

     Dynamical RAM for               rhoin:       5.92 MB

     Dynamical RAM for            rho*nmix:      43.39 MB

     Dynamical RAM for           G-vectors:      10.65 MB

     Dynamical RAM for          h,s,v(r/c):       0.06 MB

     Dynamical RAM for          <psi|beta>:       0.01 MB

     Dynamical RAM for                 psi:       4.32 MB

     Dynamical RAM for                hpsi:       4.32 MB

     Dynamical RAM for                spsi:       4.32 MB

     Dynamical RAM for      wfcinit/wfcrot:       4.32 MB

     Dynamical RAM for           addusdens:     507.17 MB

     Dynamical RAM for          addusforce:     508.53 MB

     Dynamical RAM for         addusstress:     545.14 MB

     Estimated static dynamical RAM per process >     140.09 MB

     Estimated max dynamical RAM per process >     728.62 MB

     Initial potential from superposition of free atoms

     starting charge      26.9998, renormalised to      27.0000

     negative rho (up, down):  1.310E-04 0.000E+00
     Starting wfcs are   18 randomized atomic wfcs
     Checking if some PAW data can be deallocated... 

     total cpu time spent up to now is        3.9 secs

     Self-consistent Calculation

     iteration #  1     ecut=    50.00 Ry     beta= 0.40
     Davidson diagonalization with overlap

---- Real-time Memory Report at c_bands before calling an iterative solver
           611 MiB given to the printing process from OS
             0 MiB allocation reported by mallinfo(arena+hblkhd)
          5290 MiB available memory on the node where the printing process lives
------------------
     ethr =  1.00E-02,  avg # of iterations =  6.4

     negative rho (up, down):  6.331E-05 0.000E+00

     total cpu time spent up to now is       13.8 secs

     total energy              =    -503.83381801 Ry
     estimated scf accuracy    <       0.76905734 Ry

     iteration #  2     ecut=    50.00 Ry     beta= 0.40
     Davidson diagonalization with overlap

---- Real-time Memory Report at c_bands before calling an iterative solver
           700 MiB given to the printing process from OS
             0 MiB allocation reported by mallinfo(arena+hblkhd)
          5275 MiB available memory on the node where the printing process lives
------------------
     ethr =  2.85E-03,  avg # of iterations =  4.2

     negative rho (up, down):  6.685E-05 0.000E+00

     total cpu time spent up to now is       23.6 secs

     total energy              =    -503.65351630 Ry
     estimated scf accuracy    <       3.50821217 Ry

     iteration #  3     ecut=    50.00 Ry     beta= 0.40
     Davidson diagonalization with overlap

---- Real-time Memory Report at c_bands before calling an iterative solver
           706 MiB given to the printing process from OS
             0 MiB allocation reported by mallinfo(arena+hblkhd)
          5267 MiB available memory on the node where the printing process lives
------------------
     ethr =  2.85E-03,  avg # of iterations =  2.5

     negative rho (up, down):  5.797E-05 0.000E+00

     total cpu time spent up to now is       33.0 secs

     total energy              =    -504.12530028 Ry
     estimated scf accuracy    <       0.31061763 Ry

     iteration #  4     ecut=    50.00 Ry     beta= 0.40
     Davidson diagonalization with overlap

---- Real-time Memory Report at c_bands before calling an iterative solver
           709 MiB given to the printing process from OS
             0 MiB allocation reported by mallinfo(arena+hblkhd)
          5267 MiB available memory on the node where the printing process lives
------------------
     ethr =  1.15E-03,  avg # of iterations =  1.1

     negative rho (up, down):  6.796E-05 0.000E+00

     total cpu time spent up to now is       41.4 secs

     total energy              =    -504.13352168 Ry
     estimated scf accuracy    <       0.09445578 Ry

     iteration #  5     ecut=    50.00 Ry     beta= 0.40
     Davidson diagonalization with overlap

---- Real-time Memory Report at c_bands before calling an iterative solver
           711 MiB given to the printing process from OS
             0 MiB allocation reported by mallinfo(arena+hblkhd)
          5266 MiB available memory on the node where the printing process lives
------------------
     ethr =  3.50E-04,  avg # of iterations =  2.1

     negative rho (up, down):  8.820E-05 0.000E+00

     total cpu time spent up to now is       49.0 secs

     total energy              =    -504.12204086 Ry
     estimated scf accuracy    <       0.04044897 Ry

     iteration #  6     ecut=    50.00 Ry     beta= 0.40
     Davidson diagonalization with overlap

---- Real-time Memory Report at c_bands before calling an iterative solver
           713 MiB given to the printing process from OS
             0 MiB allocation reported by mallinfo(arena+hblkhd)
          5261 MiB available memory on the node where the printing process lives
------------------
     ethr =  1.50E-04,  avg # of iterations =  4.1

     negative rho (up, down):  1.053E-04 0.000E+00

     total cpu time spent up to now is       58.3 secs

     total energy              =    -504.12762279 Ry
     estimated scf accuracy    <       0.00719324 Ry

     iteration #  7     ecut=    50.00 Ry     beta= 0.40
     Davidson diagonalization with overlap

---- Real-time Memory Report at c_bands before calling an iterative solver
           715 MiB given to the printing process from OS
             0 MiB allocation reported by mallinfo(arena+hblkhd)
          5260 MiB available memory on the node where the printing process lives
------------------
     ethr =  2.66E-05,  avg # of iterations =  3.9

     negative rho (up, down):  1.195E-04 0.000E+00

     total cpu time spent up to now is       66.7 secs

     total energy              =    -504.12812120 Ry
     estimated scf accuracy    <       0.00033186 Ry

     iteration #  8     ecut=    50.00 Ry     beta= 0.40
     Davidson diagonalization with overlap

---- Real-time Memory Report at c_bands before calling an iterative solver
           716 MiB given to the printing process from OS
             0 MiB allocation reported by mallinfo(arena+hblkhd)
          5257 MiB available memory on the node where the printing process lives
------------------
     ethr =  1.23E-06,  avg # of iterations =  5.4

     negative rho (up, down):  1.261E-04 0.000E+00

     total cpu time spent up to now is       77.0 secs

     total energy              =    -504.12814794 Ry
     estimated scf accuracy    <       0.00001432 Ry

     iteration #  9     ecut=    50.00 Ry     beta= 0.40
     Davidson diagonalization with overlap

---- Real-time Memory Report at c_bands before calling an iterative solver
           719 MiB given to the printing process from OS
             0 MiB allocation reported by mallinfo(arena+hblkhd)
          5253 MiB available memory on the node where the printing process lives
------------------
     ethr =  5.30E-08,  avg # of iterations =  2.0

     negative rho (up, down):  1.312E-04 0.000E+00

     total cpu time spent up to now is       85.7 secs

     total energy              =    -504.12814633 Ry
     estimated scf accuracy    <       0.00000828 Ry

     iteration # 10     ecut=    50.00 Ry     beta= 0.40
     Davidson diagonalization with overlap

---- Real-time Memory Report at c_bands before calling an iterative solver
           720 MiB given to the printing process from OS
             0 MiB allocation reported by mallinfo(arena+hblkhd)
          5257 MiB available memory on the node where the printing process lives
------------------
     ethr =  3.07E-08,  avg # of iterations =  1.9

     negative rho (up, down):  1.339E-04 0.000E+00

     total cpu time spent up to now is       94.2 secs

     total energy              =    -504.12814466 Ry
     estimated scf accuracy    <       0.00002667 Ry

     iteration # 11     ecut=    50.00 Ry     beta= 0.40
     Davidson diagonalization with overlap

---- Real-time Memory Report at c_bands before calling an iterative solver
           721 MiB given to the printing process from OS
             0 MiB allocation reported by mallinfo(arena+hblkhd)
          5255 MiB available memory on the node where the printing process lives
------------------
     ethr =  3.07E-08,  avg # of iterations =  1.9

     negative rho (up, down):  1.351E-04 0.000E+00

     total cpu time spent up to now is      103.3 secs

     total energy              =    -504.12814878 Ry
     estimated scf accuracy    <       0.00000586 Ry

     iteration # 12     ecut=    50.00 Ry     beta= 0.40
     Davidson diagonalization with overlap

---- Real-time Memory Report at c_bands before calling an iterative solver
           721 MiB given to the printing process from OS
             0 MiB allocation reported by mallinfo(arena+hblkhd)
          5249 MiB available memory on the node where the printing process lives
------------------
     ethr =  2.17E-08,  avg # of iterations =  1.0

     negative rho (up, down):  1.356E-04 0.000E+00

     total cpu time spent up to now is      110.8 secs

     total energy              =    -504.12814930 Ry
     estimated scf accuracy    <       0.00000001 Ry

     iteration # 13     ecut=    50.00 Ry     beta= 0.40
     Davidson diagonalization with overlap

---- Real-time Memory Report at c_bands before calling an iterative solver
           721 MiB given to the printing process from OS
             0 MiB allocation reported by mallinfo(arena+hblkhd)
          5252 MiB available memory on the node where the printing process lives
------------------
     ethr =  4.24E-11,  avg # of iterations =  3.1

     negative rho (up, down):  1.359E-04 0.000E+00

     total cpu time spent up to now is      120.1 secs

     total energy              =    -504.12814929 Ry
     estimated scf accuracy    <       0.00000007 Ry

     iteration # 14     ecut=    50.00 Ry     beta= 0.40
     Davidson diagonalization with overlap

---- Real-time Memory Report at c_bands before calling an iterative solver
           721 MiB given to the printing process from OS
             0 MiB allocation reported by mallinfo(arena+hblkhd)
          5251 MiB available memory on the node where the printing process lives
------------------
     ethr =  4.24E-11,  avg # of iterations =  2.1

     negative rho (up, down):  1.360E-04 0.000E+00

     total cpu time spent up to now is      128.8 secs

     total energy              =    -504.12814930 Ry
     estimated scf accuracy    <       0.00000001 Ry

     iteration # 15     ecut=    50.00 Ry     beta= 0.40
     Davidson diagonalization with overlap

---- Real-time Memory Report at c_bands before calling an iterative solver
           721 MiB given to the printing process from OS
             0 MiB allocation reported by mallinfo(arena+hblkhd)
          5256 MiB available memory on the node where the printing process lives
------------------
     ethr =  3.99E-11,  avg # of iterations =  1.0

     negative rho (up, down):  1.362E-04 0.000E+00

     total cpu time spent up to now is      136.8 secs

     End of self-consistent calculation

          k = 0.0000 0.0000 0.0000 (  7831 PWs)   bands (ev):

  -128.0158 -82.1888 -82.1888 -82.1528 -20.0646  -9.8705  -9.5708  -8.7458
    -8.7458  -8.5920  -8.1541  -5.7417  -2.8952  -2.8952  -2.2739   1.0255
     1.4724   1.6358

     occupation numbers 
     1.0000   1.0000   1.0000   1.0000   1.0000   1.0000   1.0000   1.0000
     1.0000   1.0000   1.0000   1.0000   1.0375   1.0375   0.0235   0.0000
     0.0000   0.0000

          k = 0.0000 0.0833 0.0000 (  7841 PWs)   bands (ev):

  -128.0157 -82.1900 -82.1887 -82.1527 -20.0181  -9.7963  -9.5402  -8.7808
    -8.7414  -8.6149  -8.1222  -5.6466  -3.1923  -2.8682  -2.1633   1.1858
     1.6123   1.7830

     occupation numbers 
     1.0000   1.0000   1.0000   1.0000   1.0000   1.0000   1.0000   1.0000
     1.0000   1.0000   1.0000   1.0000   1.0001   1.0496   0.0023   0.0000
     0.0000   0.0000

          k = 0.0000 0.1667 0.0000 (  7857 PWs)   bands (ev):

  -128.0155 -82.1931 -82.1885 -82.1525 -19.8878  -9.6536  -9.4017  -8.8656
    -8.7353  -8.6708  -8.0213  -5.4332  -3.7872  -2.7948  -1.9112   1.6297
     2.0306   2.2183

     occupation numbers 
     1.0000   1.0000   1.0000   1.0000   1.0000   1.0000   1.0000   1.0000
     1.0000   1.0000   1.0000   1.0000   1.0000   1.0799   0.0000   0.0000
     0.0000   0.0000

          k = 0.0000 0.2500 0.0000 (  7881 PWs)   bands (ev):

  -128.0152 -82.1973 -82.1883 -82.1522 -19.7013  -9.5761  -9.1369  -8.9508
    -8.7818  -8.6899  -7.8268  -5.4742  -4.0240  -2.6953  -1.5682   2.3183
     2.7223   2.9316

     occupation numbers 
     1.0000   1.0000   1.0000   1.0000   1.0000   1.0000   1.0000   1.0000
     1.0000   1.0000   1.0000   1.0000   1.0000   1.0393   0.0000   0.0000
     0.0000   0.0000

          k = 0.0000 0.3333 0.0000 (  7882 PWs)   bands (ev):

  -128.0149 -82.2016 -82.1880 -82.1518 -19.5036  -9.5446  -9.0544  -8.8725
    -8.8609  -8.6740  -7.5058  -5.9595  -3.5178  -2.5964  -1.2145   3.0308
     3.2503   3.7122

     occupation numbers 
     1.0000   1.0000   1.0000   1.0000   1.0000   1.0000   1.0000   1.0000
     1.0000   1.0000   1.0000   1.0000   1.0000   0.8009   0.0000   0.0000
     0.0000   0.0000

          k = 0.0000 0.4167 0.0000 (  7900 PWs)   bands (ev):

  -128.0147 -82.2047 -82.1878 -82.1516 -19.3508  -9.5383  -9.0793  -8.9198
    -8.7894  -8.6599  -7.1141  -6.4196  -2.6568  -2.5242  -1.0801   1.4812
     4.2384   4.6806

     occupation numbers 
     1.0000   1.0000   1.0000   1.0000   1.0000   1.0000   1.0000   1.0000
     1.0000   1.0000   1.0000   1.0000   0.9717   0.5365   0.0000   0.0000
     0.0000   0.0000

          k = 0.0000-0.5000 0.0000 (  7920 PWs)   bands (ev):

  -128.0147 -82.2059 -82.1877 -82.1515 -19.2929  -9.5392  -9.0858  -8.9413
    -8.7782  -8.6546  -6.7861  -6.7413  -2.4978  -1.8458  -1.4693   0.8953
     4.3555   5.5640

     occupation numbers 
     1.0000   1.0000   1.0000   1.0000   1.0000   1.0000   1.0000   1.0000
     1.0000   1.0000   1.0000   1.0000   0.4400   0.0000   0.0000   0.0000
     0.0000   0.0000

          k = 0.0833 0.0833 0.0000 (  7870 PWs)   bands (ev):

  -128.0156 -82.1899 -82.1899 -82.1527 -19.9721  -9.7188  -9.5154  -8.7759
    -8.7746  -8.6412  -8.0860  -5.5605  -3.2269  -3.0676  -2.0651   1.3408
     1.7521   1.9294

     occupation numbers 
     1.0000   1.0000   1.0000   1.0000   1.0000   1.0000   1.0000   1.0000
     1.0000   1.0000   1.0000   1.0000   1.0000   1.0022   0.0002   0.0000
     0.0000   0.0000

          k = 0.0833 0.1667 0.0000 (  7854 PWs)   bands (ev):

  -128.0154 -82.1930 -82.1897 -82.1524 -19.8433  -9.5730  -9.3895  -8.8591
    -8.7643  -8.7052  -7.9727  -5.3758  -3.7188  -3.0267  -1.8232   1.7759
     2.1701   2.3632

     occupation numbers 
     1.0000   1.0000   1.0000   1.0000   1.0000   1.0000   1.0000   1.0000
     1.0000   1.0000   1.0000   1.0000   1.0000   1.0051   0.0000   0.0000
     0.0000   0.0000

          k = 0.0833 0.2500 0.0000 (  7876 PWs)   bands (ev):

  -128.0151 -82.1972 -82.1894 -82.1521 -19.6590  -9.5041  -9.1344  -8.9490
    -8.8051  -8.7280  -7.7587  -5.4386  -3.9334  -2.8890  -1.4847   2.4566
     2.8616   3.0754

     occupation numbers 
     1.0000   1.0000   1.0000   1.0000   1.0000   1.0000   1.0000   1.0000
     1.0000   1.0000   1.0000   1.0000   1.0000   1.0401   0.0000   0.0000
     0.0000   0.0000

          k = 0.0833 0.3333 0.0000 (  7864 PWs)   bands (ev):

  -128.0149 -82.2015 -82.1891 -82.1517 -19.4637  -9.4731  -9.0502  -8.9538
    -8.8247  -8.7129  -7.4188  -5.8996  -3.4983  -2.7129  -1.1289   3.1380
     3.3892   3.8474

     occupation numbers 
     1.0000   1.0000   1.0000   1.0000   1.0000   1.0000   1.0000   1.0000
     1.0000   1.0000   1.0000   1.0000   1.0000   1.0591   0.0000   0.0000
     0.0000   0.0000

          k = 0.0833 0.4167 0.0000 (  7894 PWs)   bands (ev):

  -128.0147 -82.2046 -82.1889 -82.1515 -19.3128  -9.4645  -9.0831  -8.9815
    -8.7861  -8.6928  -7.0198  -6.3400  -2.9604  -2.3225  -0.9758   1.5807
     4.3715   4.7982

     occupation numbers 
     1.0000   1.0000   1.0000   1.0000   1.0000   1.0000   1.0000   1.0000
     1.0000   1.0000   1.0000   1.0000   1.0158   0.0541   0.0000   0.0000
     0.0000   0.0000

          k = 0.0833-0.5000 0.0000 (  7904 PWs)   bands (ev):

  -128.0146 -82.2058 -82.1888 -82.1514 -19.2557  -9.4639  -9.0968  -8.9938
    -8.7880  -8.6812  -6.6801  -6.6660  -2.8241  -1.6141  -1.3534   0.9766
     4.4959   5.6374

     occupation numbers 
     1.0000   1.0000   1.0000   1.0000   1.0000   1.0000   1.0000   1.0000
     1.0000   1.0000   1.0000   1.0000   1.0697   0.0000   0.0000   0.0000
     0.0000   0.0000

          k = 0.1667 0.1667 0.0000 (  7864 PWs)   bands (ev):

  -128.0152 -82.1929 -82.1927 -82.1521 -19.7187  -9.3679  -9.3532  -8.8591
    -8.8252  -8.7861  -7.8246  -5.2693  -3.5218  -3.5169  -1.5904   2.1944
     2.5877   2.7941

     occupation numbers 
     1.0000   1.0000   1.0000   1.0000   1.0000   1.0000   1.0000   1.0000
     1.0000   1.0000   1.0000   1.0000   1.0000   1.0000   0.0000   0.0000
     0.0000   0.0000

          k = 0.1667 0.2500 0.0000 (  7859 PWs)   bands (ev):

  -128.0149 -82.1970 -82.1925 -82.1518 -19.5405  -9.3196  -9.1364  -8.9510
    -8.8507  -8.8182  -7.5609  -5.3559  -3.8222  -3.1852  -1.2553   2.8567
     3.2785   3.5040

     occupation numbers 
     1.0000   1.0000   1.0000   1.0000   1.0000   1.0000   1.0000   1.0000
     1.0000   1.0000   1.0000   1.0000   1.0000   1.0001   0.0000   0.0000
     0.0000   0.0000

          k = 0.1667 0.3333 0.0000 (  7846 PWs)   bands (ev):

  -128.0146 -82.2012 -82.1921 -82.1515 -19.3521  -9.2894  -9.0773  -9.0426
    -8.8213  -8.7914  -7.1805  -5.7375  -3.7204  -2.6820  -0.8919   3.4399
     3.7858   4.2499

     occupation numbers 
     1.0000   1.0000   1.0000   1.0000   1.0000   1.0000   1.0000   1.0000
     1.0000   1.0000   1.0000   1.0000   1.0000   1.0197   0.0000   0.0000
     0.0000   0.0000

          k = 0.1667 0.4167 0.0000 (  7870 PWs)   bands (ev):

  -128.0144 -82.2043 -82.1919 -82.1513 -19.2068  -9.2723  -9.1422  -9.0665
    -8.8440  -8.7163  -6.7698  -6.1231  -3.5304  -1.9547  -0.6942   1.8602
     4.7583   5.1341

     occupation numbers 
     1.0000   1.0000   1.0000   1.0000   1.0000   1.0000   1.0000   1.0000
     1.0000   1.0000   1.0000   1.0000   1.0000   0.0000   0.0000   0.0000
     0.0000   0.0000

          k = 0.1667-0.5000 0.0000 (  7874 PWs)   bands (ev):

  -128.0144 -82.2055 -82.1918 -82.1512 -19.1518  -9.2620  -9.1800  -9.0667
    -8.8620  -8.6926  -6.4552  -6.4066  -3.4528  -1.1946  -1.0104   1.2035
     4.9125   5.8227

     occupation numbers 
     1.0000   1.0000   1.0000   1.0000   1.0000   1.0000   1.0000   1.0000
     1.0000   1.0000   1.0000   1.0000   1.0000   0.0000   0.0000   0.0000
     0.0000   0.0000

          k = 0.2500 0.2500 0.0000 (  7842 PWs)   bands (ev):

  -128.0146 -82.1967 -82.1965 -82.1515 -19.3715  -9.1835  -9.1147  -8.9603
    -8.9165  -8.8515  -7.2417  -5.3299  -4.1150  -2.8766  -0.9192   3.4903
     3.9670   4.2117

     occupation numbers 
     1.0000   1.0000   1.0000   1.0000   1.0000   1.0000   1.0000   1.0000
     1.0000   1.0000   1.0000   1.0000   1.0000   1.0456   0.0000   0.0000
     0.0000   0.0000

          k = 0.2500 0.3333 0.0000 (  7834 PWs)   bands (ev):

  -128.0144 -82.2009 -82.1963 -82.1512 -19.1932  -9.2452  -9.0888  -8.9937
    -8.9101  -8.7802  -6.8307  -5.5241  -4.2584  -2.2274  -0.5443   3.8713
     4.3739   4.9044

     occupation numbers 
     1.0000   1.0000   1.0000   1.0000   1.0000   1.0000   1.0000   1.0000
     1.0000   1.0000   1.0000   1.0000   1.0000   0.0096   0.0000   0.0000
     0.0000   0.0000

          k = 0.2500 0.4167 0.0000 (  7841 PWs)   bands (ev):

  -128.0142 -82.2040 -82.1961 -82.1509 -19.0559  -9.3049  -9.1137  -9.0302
    -8.9158  -8.6887  -6.4213  -5.8222  -4.1896  -1.4090  -0.2884   2.2841
     5.3244   5.6219

     occupation numbers 
     1.0000   1.0000   1.0000   1.0000   1.0000   1.0000   1.0000   1.0000
     1.0000   1.0000   1.0000   1.0000   1.0000   0.0000   0.0000   0.0000
     0.0000   0.0000

          k = 0.2500-0.5000 0.0000 (  7850 PWs)   bands (ev):

  -128.0141 -82.2051 -82.1960 -82.1508 -19.0041  -9.3281  -9.1085  -9.0660
    -8.9171  -8.6575  -6.1410  -6.0540  -4.1397  -0.6888  -0.4517   1.5499
     5.5594   6.0039

     occupation numbers 
     1.0000   1.0000   1.0000   1.0000   1.0000   1.0000   1.0000   1.0000
     1.0000   1.0000   1.0000   1.0000   1.0000   0.0000   0.0000   0.0000
     0.0000   0.0000

          k = 0.3333 0.3333 0.0000 (  7832 PWs)   bands (ev):

  -128.0141 -82.2006 -82.2004 -82.1508 -19.0259  -9.3535  -9.1304  -9.0222
    -8.7640  -8.7560  -6.4191  -5.3809  -4.7004  -1.5365  -0.1488   3.9826
     4.8861   5.5763

     occupation numbers 
     1.0000   1.0000   1.0000   1.0000   1.0000   1.0000   1.0000   1.0000
     1.0000   1.0000   1.0000   1.0000   1.0000   0.0000   0.0000   0.0000
     0.0000   0.0000

          k = 0.3333 0.4167 0.0000 (  7838 PWs)   bands (ev):

  -128.0139 -82.2036 -82.2003 -82.1506 -18.8974  -9.4262  -9.1703  -9.0978
    -8.7487  -8.6119  -6.0332  -5.5073  -4.7726  -0.7128   0.1874   2.7877
     5.2504   6.1600

     occupation numbers 
     1.0000   1.0000   1.0000   1.0000   1.0000   1.0000   1.0000   1.0000
     1.0000   1.0000   1.0000   1.0000   1.0000   0.0000   0.0000   0.0000
     0.0000   0.0000

          k = 0.3333-0.5000 0.0000 (  7856 PWs)   bands (ev):

  -128.0138 -82.2047 -82.2002 -82.1505 -18.8490  -9.4508  -9.1665  -9.1491
    -8.7435  -8.5627  -5.7741  -5.7093  -4.7339  -0.1604   0.3132   1.9929
     5.4177   6.5236

     occupation numbers 
     1.0000   1.0000   1.0000   1.0000   1.0000   1.0000   1.0000   1.0000
     1.0000   1.0000   1.0000   1.0000   1.0000   0.0000   0.0000   0.0000
     0.0000   0.0000

          k = 0.4167 0.4167 0.0000 (  7842 PWs)   bands (ev):

  -128.0137 -82.2034 -82.2033 -82.1504 -18.7759  -9.4984  -9.2250  -9.1813
    -8.6896  -8.4693  -5.6910  -5.2894  -5.1485  -0.0202   0.7421   3.0119
     4.1117   6.3645

     occupation numbers 
     1.0000   1.0000   1.0000   1.0000   1.0000   1.0000   1.0000   1.0000
     1.0000   1.0000   1.0000   1.0000   1.0000   0.0000   0.0000   0.0000
     0.0000   0.0000

          k = 0.4167-0.5000 0.0000 (  7830 PWs)   bands (ev):

  -128.0136 -82.2044 -82.2032 -82.1503 -18.7302  -9.5206  -9.2317  -9.2310
    -8.6778  -8.4092  -5.4549  -5.4516  -5.1310   0.2610   1.2861   2.4530
     3.9771   6.4041

     occupation numbers 
     1.0000   1.0000   1.0000   1.0000   1.0000   1.0000   1.0000   1.0000
     1.0000   1.0000   1.0000   1.0000   1.0000   0.0000   0.0000   0.0000
     0.0000   0.0000

          k =-0.5000-0.5000 0.0000 (  7904 PWs)   bands (ev):

  -128.0135 -82.2044 -82.2044 -82.1502 -18.6855  -9.5408  -9.2616  -9.2616
    -8.6638  -8.3439  -5.3240  -5.3240  -5.3009   0.4247   2.3417   2.6794
     2.6794   6.3164

     occupation numbers 
     1.0000   1.0000   1.0000   1.0000   1.0000   1.0000   1.0000   1.0000
     1.0000   1.0000   1.0000   1.0000   1.0000   0.0000   0.0000   0.0000
     0.0000   0.0000

     the Fermi energy is    -2.4865 ev

!    total energy              =    -504.12814931 Ry
     estimated scf accuracy    <          1.0E-10 Ry
     smearing contrib. (-TS)   =       0.00088710 Ry
     internal energy E=F+TS    =    -504.12903641 Ry

     The total energy is F=E-TS. E is the sum of the following terms:
     one-electron contribution =   -2810.72352769 Ry
     hartree contribution      =    1404.24494698 Ry
     xc contribution           =     -49.91837759 Ry
     ewald contribution        =     961.81215626 Ry
     one-center paw contrib.   =      -9.54423437 Ry
      -> PAW hartree energy AE =      24.03151475 Ry
      -> PAW hartree energy PS =     -23.92833626 Ry
      -> PAW xc energy AE      =     -16.35320837 Ry
      -> PAW xc energy PS      =       6.70579551 Ry
      -> total E_H with PAW    =    1404.34812548 Ry
      -> total E_XC with PAW   =     -59.56579045 Ry

     convergence has been achieved in  15 iterations

     negative rho (up, down):  1.362E-04 0.000E+00

     Forces acting on atoms (cartesian axes, Ry/au):

     atom    1 type  2   force =     0.00000000    0.00000000    0.10136828
     atom    2 type  1   force =     0.00000000    0.00000000    0.05455212
     atom    3 type  3   force =     0.00000000    0.00000000   -0.15592040
     The non-local contrib.  to forces
     atom    1 type  2   force =     0.00000000    0.00000000   -0.52175996
     atom    2 type  1   force =     0.00000000    0.00000000    0.32556728
     atom    3 type  3   force =     0.00000000    0.00000000   -0.01201242
     The ionic contribution  to forces
     atom    1 type  2   force =     0.00000000    0.00000000  -52.70764745
     atom    2 type  1   force =     0.00000000    0.00000000   42.26712605
     atom    3 type  3   force =     0.00000000    0.00000000   10.44052140
     The local contribution  to forces
     atom    1 type  2   force =     0.00000000    0.00000000   53.33085476
     atom    2 type  1   force =     0.00000000    0.00000000  -42.53263472
     atom    3 type  3   force =    -0.00000000   -0.00000000  -10.58444838
     The core correction contribution to forces
     atom    1 type  2   force =     0.00000000    0.00000000    0.00000000
     atom    2 type  1   force =     0.00000000    0.00000000   -0.00551728
     atom    3 type  3   force =     0.00000000    0.00000000    0.00000000
     The Hubbard contrib.    to forces
     atom    1 type  2   force =     0.00000000    0.00000000    0.00000000
     atom    2 type  1   force =     0.00000000    0.00000000    0.00000000
     atom    3 type  3   force =     0.00000000    0.00000000    0.00000000
     The SCF correction term to forces
     atom    1 type  2   force =    -0.00000000   -0.00000000   -0.00009716
     atom    2 type  1   force =    -0.00000000   -0.00000000   -0.00000729
     atom    3 type  3   force =    -0.00000000   -0.00000000    0.00000091

     Total force =     0.193811     Total SCF correction =     0.000097


     Computing stress (Cartesian axis) and pressure


     negative rho (up, down):  1.362E-04 0.000E+00
          total   stress  (Ry/bohr**3)                   (kbar)     P=      -26.48
   0.00001122   0.00000000   0.00000000            1.65        0.00        0.00
   0.00000000   0.00001122   0.00000000            0.00        1.65        0.00
   0.00000000   0.00000000  -0.00056237            0.00        0.00      -82.73

     kinetic stress (kbar)   4335.02      0.00      0.00
                                0.00   4335.02      0.00
                                0.00      0.00   4119.79

     local   stress (kbar)-272248.32     -0.00     -0.00
                               -0.00-272248.32     -0.00
                               -0.00     -0.00 272773.37

     nonloc. stress (kbar)    -75.50      0.00      0.00
                                0.00    -75.50      0.00
                                0.00      0.00    -77.78

     hartree stress (kbar) 142216.43      0.00      0.00
                                0.00 142216.43      0.00
                                0.00      0.00-127498.36

     exc-cor stress (kbar)  -1732.67     -0.00     -0.00
                               -0.00  -1732.67     -0.00
                               -0.00     -0.00  -1733.73

     corecor stress (kbar)    -47.69      0.00      0.00
                                0.00    -47.69     -0.00
                                0.00     -0.00    -46.71

     ewald   stress (kbar) 127554.38      0.00      0.00
                                0.00 127554.38      0.00
                                0.00      0.00-147619.31

     hubbard stress (kbar)      0.00      0.00      0.00
                                0.00      0.00      0.00
                                0.00      0.00      0.00

     DFT-D   stress (kbar)      0.00      0.00      0.00
                                0.00      0.00      0.00
                                0.00      0.00      0.00

     XDM     stress (kbar)      0.00      0.00      0.00
                                0.00      0.00      0.00
                                0.00      0.00      0.00

     dft-nl  stress (kbar)      0.00      0.00      0.00
                                0.00      0.00      0.00
                                0.00      0.00      0.00

     TS-vdW  stress (kbar)      0.00      0.00      0.00
                                0.00      0.00      0.00
                                0.00      0.00      0.00

     MDB     stress (kbar)      0.00      0.00      0.00
                                0.00      0.00      0.00
                                0.00      0.00      0.00

     3D-RISM stress (kbar)      0.00      0.00      0.00
                                0.00      0.00      0.00
                                0.00      0.00      0.00


     Writing all to output data dir ./temp_cubic/aiida.save/ :
     XML data file, charge density, pseudopotentials, collected wavefunctions

     init_run     :     65.60s CPU      3.62s WALL (       1 calls)
     electrons    :   2578.04s CPU    133.02s WALL (       1 calls)
     forces       :     40.18s CPU      2.15s WALL (       1 calls)
     stress       :     23.61s CPU      3.73s WALL (       1 calls)

     Called by init_run:
     wfcinit      :     60.32s CPU      2.73s WALL (       1 calls)
     wfcinit:atom :      0.05s CPU      0.04s WALL (      28 calls)
     wfcinit:wfcr :     56.75s CPU      2.49s WALL (      28 calls)
     potinit      :      1.67s CPU      0.15s WALL (       1 calls)
     hinit0       :      1.42s CPU      0.28s WALL (       1 calls)

     Called by electrons:
     c_bands      :   2117.76s CPU    101.88s WALL (      15 calls)
     sum_band     :    410.63s CPU     23.54s WALL (      15 calls)
     v_of_rho     :     14.59s CPU      1.18s WALL (      16 calls)
     v_h          :      2.09s CPU      0.15s WALL (      16 calls)
     v_xc         :     14.15s CPU      1.16s WALL (      18 calls)
     newd         :     21.70s CPU      6.03s WALL (      16 calls)
     PAW_pot      :      3.87s CPU      0.18s WALL (      16 calls)
     mix_rho      :      5.74s CPU      0.32s WALL (      15 calls)

     Called by c_bands:
     init_us_2    :     30.94s CPU      1.78s WALL (     924 calls)
     cegterg      :   2082.76s CPU     99.58s WALL (     420 calls)

     Called by sum_band:
     sum_band:wei :      0.18s CPU      0.00s WALL (      15 calls)
     sum_band:loo :    396.24s CPU     16.68s WALL (      15 calls)
     sum_band:buf :      3.15s CPU      0.11s WALL (     420 calls)
     sum_band:ini :     14.99s CPU      0.66s WALL (     420 calls)
     sum_band:cal :     70.20s CPU      2.54s WALL (     420 calls)
     sum_band:bec :     10.38s CPU      0.48s WALL (     420 calls)
     addusdens    :     11.84s CPU      6.56s WALL (      15 calls)
                                        0.00s GPU  (      15 calls)
     addusd:skk   :      0.02s CPU      0.02s WALL (      45 calls)
                                        0.00s GPU  (      45 calls)

     Called by *egterg:
     cdiaghg      :      6.06s CPU      0.41s WALL (    1616 calls)
     cegterg:over :    118.08s CPU      6.23s WALL (    1196 calls)
     cegterg:upda :     56.46s CPU      4.66s WALL (    1196 calls)
     cegterg:last :     47.92s CPU      6.93s WALL (     736 calls)
     h_psi        :   1702.48s CPU     72.88s WALL (    1644 calls)
     s_psi        :    106.16s CPU      5.69s WALL (    1644 calls)
     g_psi        :     11.44s CPU      0.55s WALL (    1196 calls)

     Called by h_psi:
     h_psi:calbec :    168.25s CPU      5.94s WALL (    1644 calls)
     vloc_psi     :   1390.72s CPU     60.33s WALL (    1644 calls)
     add_vuspsi   :    123.73s CPU      5.73s WALL (    1644 calls)

     General routines
     calbec       :    258.34s CPU      9.25s WALL (    2204 calls)
     fft          :     15.98s CPU      1.15s WALL (     231 calls)
     ffts         :      1.23s CPU      0.06s WALL (      31 calls)
     fftw         :    988.07s CPU     43.36s WALL (   43018 calls)
     interpolate  :      3.37s CPU      0.14s WALL (      16 calls)

     Parallel routines

     PAW routines
     PAW_pot      :      3.87s CPU      0.18s WALL (      16 calls)
     PAW_symme    :      0.00s CPU      0.00s WALL (      31 calls)

     PWSCF        :  45m18.44s CPU   2m23.69s WALL


   This run was terminated on:  20:43:10  14Jun2024            

=------------------------------------------------------------------------------=
   JOB DONE.
=------------------------------------------------------------------------------=
