
     Program PWSCF v.7.3.1 starts on 14Jun2024 at 20:46:25 

     This program is part of the open-source Quantum ESPRESSO suite
     for quantum simulation of materials; please cite
         "P. Giannozzi et al., J. Phys.:Condens. Matter 21 395502 (2009);
         "P. Giannozzi et al., J. Phys.:Condens. Matter 29 465901 (2017);
         "P. Giannozzi et al., J. Chem. Phys. 152 154105 (2020);
          URL http://www.quantum-espresso.org", 
     in publications or presentations arising from this work. More details at
     http://www.quantum-espresso.org/quote

     Parallel version (MPI & OpenMP), running on      24 processor cores
     Number of MPI processes:                 1
     Threads/MPI process:                    24

     MPI processes distributed on     1 nodes
     5448 MiB available memory on the printing compute node when the environment starts

     Waiting for input...
     Reading input from standard input

     Current dimensions of program PWSCF are:
     Max number of different atomic species (ntypx) = 10
     Max number of k-points (npk) =  40000
     Max angular momentum in pseudopotentials (lmaxx) =  4
     file O.pbe-n-kjpaw_psl.0.1.UPF: wavefunction(s)  2P renormalized
     Message from routine setup:
     using ibrav=0 with symmetry is DISCOURAGED, use correct ibrav instead

     Subspace diagonalization in iterative solution of the eigenvalue problem:
     a serial algorithm will be used


     G-vector sticks info
     --------------------
     sticks:   dense  smooth     PW     G-vecs:    dense   smooth      PW
     Sum         829     421    137               177743    63081   11257

     Using Slab Decomposition



     bravais-lattice index     =            0
     lattice parameter (alat)  =       5.0869  a.u.
     unit-cell volume          =    1316.2915 (a.u.)^3
     number of atoms/cell      =            3
     number of atomic types    =            3
     number of electrons       =        27.00
     number of Kohn-Sham states=           18
     kinetic-energy cutoff     =      50.0000  Ry
     charge density cutoff     =     400.0000  Ry
     scf convergence threshold =      1.0E-08
     mixing beta               =       0.4000
     number of iterations used =            8  plain     mixing
     Exchange-correlation= PBE
                           (   1   4   3   4   0   0   0)

     celldm(1)=   5.086871  celldm(2)=   0.000000  celldm(3)=   0.000000
     celldm(4)=   0.000000  celldm(5)=   0.000000  celldm(6)=   0.000000

     crystal axes: (cart. coord. in units of alat)
               a(1) = (   1.000000   0.000000   0.000000 )  
               a(2) = (   0.000000   1.000000   0.000000 )  
               a(3) = (   0.000000   0.000000  10.000000 )  

     reciprocal axes: (cart. coord. in units 2 pi/alat)
               b(1) = (  1.000000  0.000000  0.000000 )  
               b(2) = (  0.000000  1.000000  0.000000 )  
               b(3) = (  0.000000  0.000000  0.100000 )  


     PseudoPot. # 1 for O  read from file:
     ../SSSP_1.3.0_PBE_efficiency/O.pbe-n-kjpaw_psl.0.1.UPF
     MD5 check sum: 0234752ac141de4415c5fc33072bef88
     Pseudo is Projector augmented-wave + core cor, Zval =  6.0
     Generated using "atomic" code by A. Dal Corso  v.5.0.99 svn rev. 10869
     Shape of augmentation charge: BESSEL
     Using radial grid of 1095 points,  4 beta functions with: 
                l(1) =   0
                l(2) =   0
                l(3) =   1
                l(4) =   1
     Q(r) pseudized with 0 coefficients 


     PseudoPot. # 2 for Zn read from file:
     ../SSSP_1.3.0_PBE_efficiency/Zn_pbe_v1.uspp.F.UPF
     MD5 check sum: df62231357ef9e81f77b2b3087fa5675
     Pseudo is Ultrasoft, Zval = 20.0
     Generated by new atomic code, or converted to UPF format
     Using radial grid of  943 points,  6 beta functions with: 
                l(1) =   0
                l(2) =   0
                l(3) =   1
                l(4) =   1
                l(5) =   2
                l(6) =   2
     Q(r) pseudized with  8 coefficients,  rinner =    1.100   1.100   1.100
                                                       1.100   1.100

     PseudoPot. # 3 for H  read from file:
     ../SSSP_1.3.0_PBE_efficiency/H.pbe-rrkjus_psl.1.0.0.UPF
     MD5 check sum: f52b6d4d1c606e5624b1dc7b2218f220
     Pseudo is Ultrasoft, Zval =  1.0
     Generated using "atomic" code by A. Dal Corso  v.5.1
     Using radial grid of  929 points,  2 beta functions with: 
                l(1) =   0
                l(2) =   0
     Q(r) pseudized with 0 coefficients 


     atomic species   valence    mass     pseudopotential
     O                 6.00    15.99940     O ( 1.00)
     Zn               20.00    65.38000     Zn( 1.00)
     H                 1.00     1.00794     H ( 1.00)

      8 Sym. Ops. (no inversion) found


                                    s                        frac. trans.

      isym =  1     identity                                     

 cryst.   s( 1) = (     1          0          0      )
                  (     0          1          0      )
                  (     0          0          1      )

 cart.    s( 1) = (  1.0000000  0.0000000  0.0000000 )
                  (  0.0000000  1.0000000  0.0000000 )
                  (  0.0000000  0.0000000  1.0000000 )


      isym =  2     180 deg rotation - cart. axis [0,0,1]        

 cryst.   s( 2) = (    -1          0          0      )
                  (     0         -1          0      )
                  (     0          0          1      )

 cart.    s( 2) = ( -1.0000000  0.0000000  0.0000000 )
                  (  0.0000000 -1.0000000  0.0000000 )
                  (  0.0000000  0.0000000  1.0000000 )


      isym =  3      90 deg rotation - cart. axis [0,0,-1]       

 cryst.   s( 3) = (     0         -1          0      )
                  (     1          0          0      )
                  (     0          0          1      )

 cart.    s( 3) = (  0.0000000  1.0000000  0.0000000 )
                  ( -1.0000000  0.0000000  0.0000000 )
                  (  0.0000000  0.0000000  1.0000000 )


      isym =  4      90 deg rotation - cart. axis [0,0,1]        

 cryst.   s( 4) = (     0          1          0      )
                  (    -1          0          0      )
                  (     0          0          1      )

 cart.    s( 4) = (  0.0000000 -1.0000000  0.0000000 )
                  (  1.0000000  0.0000000  0.0000000 )
                  (  0.0000000  0.0000000  1.0000000 )


      isym =  5     inv. 180 deg rotation - cart. axis [0,1,0]   

 cryst.   s( 5) = (     1          0          0      )
                  (     0         -1          0      )
                  (     0          0          1      )

 cart.    s( 5) = (  1.0000000  0.0000000  0.0000000 )
                  (  0.0000000 -1.0000000  0.0000000 )
                  (  0.0000000  0.0000000  1.0000000 )


      isym =  6     inv. 180 deg rotation - cart. axis [1,0,0]   

 cryst.   s( 6) = (    -1          0          0      )
                  (     0          1          0      )
                  (     0          0          1      )

 cart.    s( 6) = ( -1.0000000  0.0000000  0.0000000 )
                  (  0.0000000  1.0000000  0.0000000 )
                  (  0.0000000  0.0000000  1.0000000 )


      isym =  7     inv. 180 deg rotation - cart. axis [1,1,0]   

 cryst.   s( 7) = (     0         -1          0      )
                  (    -1          0          0      )
                  (     0          0          1      )

 cart.    s( 7) = (  0.0000000 -1.0000000  0.0000000 )
                  ( -1.0000000  0.0000000  0.0000000 )
                  (  0.0000000  0.0000000  1.0000000 )


      isym =  8     inv. 180 deg rotation - cart. axis [1,-1,0]  

 cryst.   s( 8) = (     0          1          0      )
                  (     1          0          0      )
                  (     0          0          1      )

 cart.    s( 8) = (  0.0000000  1.0000000  0.0000000 )
                  (  1.0000000  0.0000000  0.0000000 )
                  (  0.0000000  0.0000000  1.0000000 )


   Cartesian axes

     site n.     atom                  positions (alat units)
         1        Zn     tau(   1) = (   0.0000000   0.0000000   0.0000000  )
         2        O      tau(   2) = (   0.5000000   0.5000000   0.5000000  )
         3        H      tau(   3) = (   0.5000000   0.5000000   1.2000000  )

   Crystallographic axes

     site n.     atom                  positions (cryst. coord.)
         1        Zn     tau(   1) = (  0.0000000  0.0000000  0.0000000  )
         2        O      tau(   2) = (  0.5000000  0.5000000  0.0500000  )
         3        H      tau(   3) = (  0.5000000  0.5000000  0.1200000  )

     number of k points=    28  Marzari-Vanderbilt smearing, width (Ry)=  0.0147
                       cart. coord. in units 2pi/alat
        k(    1) = (   0.0000000   0.0000000   0.0000000), wk =   0.0138889
        k(    2) = (   0.0000000   0.0833333   0.0000000), wk =   0.0555556
        k(    3) = (   0.0000000   0.1666667   0.0000000), wk =   0.0555556
        k(    4) = (   0.0000000   0.2500000   0.0000000), wk =   0.0555556
        k(    5) = (   0.0000000   0.3333333   0.0000000), wk =   0.0555556
        k(    6) = (   0.0000000   0.4166667   0.0000000), wk =   0.0555556
        k(    7) = (   0.0000000  -0.5000000   0.0000000), wk =   0.0277778
        k(    8) = (   0.0833333   0.0833333   0.0000000), wk =   0.0555556
        k(    9) = (   0.0833333   0.1666667   0.0000000), wk =   0.1111111
        k(   10) = (   0.0833333   0.2500000   0.0000000), wk =   0.1111111
        k(   11) = (   0.0833333   0.3333333   0.0000000), wk =   0.1111111
        k(   12) = (   0.0833333   0.4166667   0.0000000), wk =   0.1111111
        k(   13) = (   0.0833333  -0.5000000   0.0000000), wk =   0.0555556
        k(   14) = (   0.1666667   0.1666667   0.0000000), wk =   0.0555556
        k(   15) = (   0.1666667   0.2500000   0.0000000), wk =   0.1111111
        k(   16) = (   0.1666667   0.3333333   0.0000000), wk =   0.1111111
        k(   17) = (   0.1666667   0.4166667   0.0000000), wk =   0.1111111
        k(   18) = (   0.1666667  -0.5000000   0.0000000), wk =   0.0555556
        k(   19) = (   0.2500000   0.2500000   0.0000000), wk =   0.0555556
        k(   20) = (   0.2500000   0.3333333   0.0000000), wk =   0.1111111
        k(   21) = (   0.2500000   0.4166667   0.0000000), wk =   0.1111111
        k(   22) = (   0.2500000  -0.5000000   0.0000000), wk =   0.0555556
        k(   23) = (   0.3333333   0.3333333   0.0000000), wk =   0.0555556
        k(   24) = (   0.3333333   0.4166667   0.0000000), wk =   0.1111111
        k(   25) = (   0.3333333  -0.5000000   0.0000000), wk =   0.0555556
        k(   26) = (   0.4166667   0.4166667   0.0000000), wk =   0.0555556
        k(   27) = (   0.4166667  -0.5000000   0.0000000), wk =   0.0555556
        k(   28) = (  -0.5000000  -0.5000000   0.0000000), wk =   0.0138889

                       cryst. coord.
        k(    1) = (   0.0000000   0.0000000   0.0000000), wk =   0.0138889
        k(    2) = (   0.0000000   0.0833333   0.0000000), wk =   0.0555556
        k(    3) = (   0.0000000   0.1666667   0.0000000), wk =   0.0555556
        k(    4) = (   0.0000000   0.2500000   0.0000000), wk =   0.0555556
        k(    5) = (   0.0000000   0.3333333   0.0000000), wk =   0.0555556
        k(    6) = (   0.0000000   0.4166667   0.0000000), wk =   0.0555556
        k(    7) = (   0.0000000  -0.5000000   0.0000000), wk =   0.0277778
        k(    8) = (   0.0833333   0.0833333   0.0000000), wk =   0.0555556
        k(    9) = (   0.0833333   0.1666667   0.0000000), wk =   0.1111111
        k(   10) = (   0.0833333   0.2500000   0.0000000), wk =   0.1111111
        k(   11) = (   0.0833333   0.3333333   0.0000000), wk =   0.1111111
        k(   12) = (   0.0833333   0.4166667   0.0000000), wk =   0.1111111
        k(   13) = (   0.0833333  -0.5000000   0.0000000), wk =   0.0555556
        k(   14) = (   0.1666667   0.1666667   0.0000000), wk =   0.0555556
        k(   15) = (   0.1666667   0.2500000   0.0000000), wk =   0.1111111
        k(   16) = (   0.1666667   0.3333333   0.0000000), wk =   0.1111111
        k(   17) = (   0.1666667   0.4166667   0.0000000), wk =   0.1111111
        k(   18) = (   0.1666667  -0.5000000   0.0000000), wk =   0.0555556
        k(   19) = (   0.2500000   0.2500000   0.0000000), wk =   0.0555556
        k(   20) = (   0.2500000   0.3333333   0.0000000), wk =   0.1111111
        k(   21) = (   0.2500000   0.4166667   0.0000000), wk =   0.1111111
        k(   22) = (   0.2500000  -0.5000000   0.0000000), wk =   0.0555556
        k(   23) = (   0.3333333   0.3333333   0.0000000), wk =   0.0555556
        k(   24) = (   0.3333333   0.4166667   0.0000000), wk =   0.1111111
        k(   25) = (   0.3333333  -0.5000000   0.0000000), wk =   0.0555556
        k(   26) = (   0.4166667   0.4166667   0.0000000), wk =   0.0555556
        k(   27) = (   0.4166667  -0.5000000   0.0000000), wk =   0.0555556
        k(   28) = (  -0.5000000  -0.5000000   0.0000000), wk =   0.0138889

     Dense  grid:   177743 G-vectors     FFT dimensions: (  36,  36, 324)

     Smooth grid:    63081 G-vectors     FFT dimensions: (  24,  24, 240)

     Dynamical RAM for                 wfc:       2.16 MB

     Dynamical RAM for     wfc (w. buffer):      62.60 MB

     Dynamical RAM for           str. fact:       8.14 MB

     Dynamical RAM for           local pot:       0.00 MB

     Dynamical RAM for          nlocal pot:       3.36 MB

     Dynamical RAM for                qrad:       4.82 MB

     Dynamical RAM for          rho,v,vnew:      17.75 MB

     Dynamical RAM for               rhoin:       5.92 MB

     Dynamical RAM for            rho*nmix:      43.39 MB

     Dynamical RAM for           G-vectors:      10.65 MB

     Dynamical RAM for          h,s,v(r/c):       0.06 MB

     Dynamical RAM for          <psi|beta>:       0.01 MB

     Dynamical RAM for                 psi:       4.32 MB

     Dynamical RAM for                hpsi:       4.32 MB

     Dynamical RAM for                spsi:       4.32 MB

     Dynamical RAM for      wfcinit/wfcrot:       4.32 MB

     Dynamical RAM for           addusdens:     507.17 MB

     Dynamical RAM for          addusforce:     508.53 MB

     Dynamical RAM for         addusstress:     545.14 MB

     Estimated static dynamical RAM per process >     140.09 MB

     Estimated max dynamical RAM per process >     728.62 MB

     Initial potential from superposition of free atoms

     starting charge      26.9998, renormalised to      27.0000

     negative rho (up, down):  1.284E-04 0.000E+00
     Starting wfcs are   18 randomized atomic wfcs
     Checking if some PAW data can be deallocated... 

     total cpu time spent up to now is        4.3 secs

     Self-consistent Calculation

     iteration #  1     ecut=    50.00 Ry     beta= 0.40
     Davidson diagonalization with overlap

---- Real-time Memory Report at c_bands before calling an iterative solver
           609 MiB given to the printing process from OS
             0 MiB allocation reported by mallinfo(arena+hblkhd)
          5298 MiB available memory on the node where the printing process lives
------------------
     ethr =  1.00E-02,  avg # of iterations =  6.3

     negative rho (up, down):  6.178E-05 0.000E+00

     total cpu time spent up to now is       13.0 secs

     total energy              =    -503.64236099 Ry
     estimated scf accuracy    <       1.00618093 Ry

     iteration #  2     ecut=    50.00 Ry     beta= 0.40
     Davidson diagonalization with overlap

---- Real-time Memory Report at c_bands before calling an iterative solver
           697 MiB given to the printing process from OS
             0 MiB allocation reported by mallinfo(arena+hblkhd)
          5273 MiB available memory on the node where the printing process lives
------------------
     ethr =  3.73E-03,  avg # of iterations =  4.2

     negative rho (up, down):  6.211E-05 0.000E+00

     total cpu time spent up to now is       23.5 secs

     total energy              =    -503.25132516 Ry
     estimated scf accuracy    <       7.58484597 Ry

     iteration #  3     ecut=    50.00 Ry     beta= 0.40
     Davidson diagonalization with overlap

---- Real-time Memory Report at c_bands before calling an iterative solver
           703 MiB given to the printing process from OS
             0 MiB allocation reported by mallinfo(arena+hblkhd)
          5270 MiB available memory on the node where the printing process lives
------------------
     ethr =  3.73E-03,  avg # of iterations =  2.9

     negative rho (up, down):  4.005E-05 0.000E+00

     total cpu time spent up to now is       32.2 secs

     total energy              =    -504.06067927 Ry
     estimated scf accuracy    <       0.28412586 Ry

     iteration #  4     ecut=    50.00 Ry     beta= 0.40
     Davidson diagonalization with overlap

---- Real-time Memory Report at c_bands before calling an iterative solver
           706 MiB given to the printing process from OS
             0 MiB allocation reported by mallinfo(arena+hblkhd)
          5267 MiB available memory on the node where the printing process lives
------------------
     ethr =  1.05E-03,  avg # of iterations =  1.7

     negative rho (up, down):  4.080E-05 0.000E+00

     total cpu time spent up to now is       40.1 secs

     total energy              =    -504.06818717 Ry
     estimated scf accuracy    <       0.18761569 Ry

     iteration #  5     ecut=    50.00 Ry     beta= 0.40
     Davidson diagonalization with overlap

---- Real-time Memory Report at c_bands before calling an iterative solver
           709 MiB given to the printing process from OS
             0 MiB allocation reported by mallinfo(arena+hblkhd)
          5264 MiB available memory on the node where the printing process lives
------------------
     ethr =  6.95E-04,  avg # of iterations =  2.3

     negative rho (up, down):  5.532E-05 0.000E+00

     total cpu time spent up to now is       47.7 secs

     total energy              =    -504.05734193 Ry
     estimated scf accuracy    <       0.07061077 Ry

     iteration #  6     ecut=    50.00 Ry     beta= 0.40
     Davidson diagonalization with overlap

---- Real-time Memory Report at c_bands before calling an iterative solver
           710 MiB given to the printing process from OS
             0 MiB allocation reported by mallinfo(arena+hblkhd)
          5262 MiB available memory on the node where the printing process lives
------------------
     ethr =  2.62E-04,  avg # of iterations =  2.6

     negative rho (up, down):  6.463E-05 0.000E+00

     total cpu time spent up to now is       56.8 secs

     total energy              =    -504.06269833 Ry
     estimated scf accuracy    <       0.00843710 Ry

     iteration #  7     ecut=    50.00 Ry     beta= 0.40
     Davidson diagonalization with overlap

---- Real-time Memory Report at c_bands before calling an iterative solver
           711 MiB given to the printing process from OS
             0 MiB allocation reported by mallinfo(arena+hblkhd)
          5262 MiB available memory on the node where the printing process lives
------------------
     ethr =  3.12E-05,  avg # of iterations =  4.5

     negative rho (up, down):  9.108E-05 0.000E+00

     total cpu time spent up to now is       65.5 secs

     total energy              =    -504.06196931 Ry
     estimated scf accuracy    <       0.01119658 Ry

     iteration #  8     ecut=    50.00 Ry     beta= 0.40
     Davidson diagonalization with overlap

---- Real-time Memory Report at c_bands before calling an iterative solver
           714 MiB given to the printing process from OS
             0 MiB allocation reported by mallinfo(arena+hblkhd)
          5257 MiB available memory on the node where the printing process lives
------------------
     ethr =  3.12E-05,  avg # of iterations =  4.9

     negative rho (up, down):  9.395E-05 0.000E+00

     total cpu time spent up to now is       74.6 secs

     total energy              =    -504.06376674 Ry
     estimated scf accuracy    <       0.00879439 Ry

     iteration #  9     ecut=    50.00 Ry     beta= 0.40
     Davidson diagonalization with overlap

---- Real-time Memory Report at c_bands before calling an iterative solver
           717 MiB given to the printing process from OS
             0 MiB allocation reported by mallinfo(arena+hblkhd)
          5254 MiB available memory on the node where the printing process lives
------------------
     ethr =  3.12E-05,  avg # of iterations =  1.0

     negative rho (up, down):  1.155E-04 0.000E+00

     total cpu time spent up to now is       81.8 secs

     total energy              =    -504.06375709 Ry
     estimated scf accuracy    <       0.00143108 Ry

     iteration # 10     ecut=    50.00 Ry     beta= 0.40
     Davidson diagonalization with overlap

---- Real-time Memory Report at c_bands before calling an iterative solver
           719 MiB given to the printing process from OS
             0 MiB allocation reported by mallinfo(arena+hblkhd)
          5250 MiB available memory on the node where the printing process lives
------------------
     ethr =  5.30E-06,  avg # of iterations =  3.7

     negative rho (up, down):  1.145E-04 0.000E+00

     total cpu time spent up to now is       91.0 secs

     total energy              =    -504.06387664 Ry
     estimated scf accuracy    <       0.00002864 Ry

     iteration # 11     ecut=    50.00 Ry     beta= 0.40
     Davidson diagonalization with overlap

---- Real-time Memory Report at c_bands before calling an iterative solver
           719 MiB given to the printing process from OS
             0 MiB allocation reported by mallinfo(arena+hblkhd)
          5248 MiB available memory on the node where the printing process lives
------------------
     ethr =  1.06E-07,  avg # of iterations =  2.2

     negative rho (up, down):  1.281E-04 0.000E+00

     total cpu time spent up to now is       98.7 secs

     total energy              =    -504.06387944 Ry
     estimated scf accuracy    <       0.00000134 Ry

     iteration # 12     ecut=    50.00 Ry     beta= 0.40
     Davidson diagonalization with overlap

---- Real-time Memory Report at c_bands before calling an iterative solver
           719 MiB given to the printing process from OS
             0 MiB allocation reported by mallinfo(arena+hblkhd)
          5248 MiB available memory on the node where the printing process lives
------------------
     ethr =  4.95E-09,  avg # of iterations =  2.1

     negative rho (up, down):  1.295E-04 0.000E+00

     total cpu time spent up to now is      107.4 secs

     total energy              =    -504.06387960 Ry
     estimated scf accuracy    <       0.00000027 Ry

     iteration # 13     ecut=    50.00 Ry     beta= 0.40
     Davidson diagonalization with overlap

---- Real-time Memory Report at c_bands before calling an iterative solver
           719 MiB given to the printing process from OS
             0 MiB allocation reported by mallinfo(arena+hblkhd)
          5249 MiB available memory on the node where the printing process lives
------------------
     ethr =  9.96E-10,  avg # of iterations =  2.0

     negative rho (up, down):  1.302E-04 0.000E+00

     total cpu time spent up to now is      116.8 secs

     total energy              =    -504.06387961 Ry
     estimated scf accuracy    <       0.00000004 Ry

     iteration # 14     ecut=    50.00 Ry     beta= 0.40
     Davidson diagonalization with overlap

---- Real-time Memory Report at c_bands before calling an iterative solver
           719 MiB given to the printing process from OS
             0 MiB allocation reported by mallinfo(arena+hblkhd)
          5257 MiB available memory on the node where the printing process lives
------------------
     ethr =  1.36E-10,  avg # of iterations =  1.4

     negative rho (up, down):  1.302E-04 0.000E+00

     total cpu time spent up to now is      125.0 secs

     End of self-consistent calculation

          k = 0.0000 0.0000 0.0000 (  7831 PWs)   bands (ev):

  -128.4375 -82.6062 -82.6062 -82.5805 -20.2459 -10.1288  -9.9818  -9.1662
    -9.1662  -9.0038  -8.2513  -5.8530  -3.1844  -3.1844  -3.0933   0.6275
     1.5311   1.6886

     occupation numbers 
     1.0000   1.0000   1.0000   1.0000   1.0000   1.0000   1.0000   1.0000
     1.0000   1.0000   1.0000   1.0000   1.0833   1.0833   1.0142   0.0000
     0.0000   0.0000

          k = 0.0000 0.0833 0.0000 (  7841 PWs)   bands (ev):

  -128.4375 -82.6073 -82.6061 -82.5804 -20.1992 -10.0695  -9.9464  -9.1997
    -9.1617  -9.0268  -8.2021  -5.7590  -3.4822  -3.1575  -2.9964   0.7894
     1.6791   1.8359

     occupation numbers 
     1.0000   1.0000   1.0000   1.0000   1.0000   1.0000   1.0000   1.0000
     1.0000   1.0000   1.0000   1.0000   1.0022   1.0786   0.7503   0.0000
     0.0000   0.0000

          k = 0.0000 0.1667 0.0000 (  7857 PWs)   bands (ev):

  -128.4373 -82.6104 -82.6059 -82.5802 -20.0684  -9.9976  -9.7683  -9.2805
    -9.1539  -9.0843  -8.0506  -5.5395  -4.0835  -3.0845  -2.7784   1.2323
     2.1151   2.2713

     occupation numbers 
     1.0000   1.0000   1.0000   1.0000   1.0000   1.0000   1.0000   1.0000
     1.0000   1.0000   1.0000   1.0000   1.0000   0.9984   0.1006   0.0000
     0.0000   0.0000

          k = 0.0000 0.2500 0.0000 (  7881 PWs)   bands (ev):

  -128.4370 -82.6147 -82.6056 -82.5799 -19.8811  -9.9617  -9.5049  -9.3660
    -9.1933  -9.1106  -7.7822  -5.5740  -4.3385  -2.9854  -2.4621   1.9161
     2.8315   2.9780

     occupation numbers 
     1.0000   1.0000   1.0000   1.0000   1.0000   1.0000   1.0000   1.0000
     1.0000   1.0000   1.0000   1.0000   1.0000   0.7109   0.0001   0.0000
     0.0000   0.0000

          k = 0.0000 0.3333 0.0000 (  7882 PWs)   bands (ev):

  -128.4367 -82.6189 -82.6054 -82.5795 -19.6826  -9.9448  -9.4414  -9.2881
    -9.2714  -9.0957  -7.4135  -6.0402  -3.8580  -2.8870  -2.1126   2.6029
     2.8568   3.8297

     occupation numbers 
     1.0000   1.0000   1.0000   1.0000   1.0000   1.0000   1.0000   1.0000
     1.0000   1.0000   1.0000   1.0000   1.0000   0.3537   0.0000   0.0000
     0.0000   0.0000

          k = 0.0000 0.4167 0.0000 (  7900 PWs)   bands (ev):

  -128.4365 -82.6220 -82.6052 -82.5793 -19.5291  -9.9422  -9.4697  -9.3300
    -9.2042  -9.0819  -7.1068  -6.3509  -3.1065  -2.8152  -1.8641   0.9421
     3.9493   4.6084

     occupation numbers 
     1.0000   1.0000   1.0000   1.0000   1.0000   1.0000   1.0000   1.0000
     1.0000   1.0000   1.0000   1.0000   1.0346   0.1637   0.0000   0.0000
     0.0000   0.0000

          k = 0.0000-0.5000 0.0000 (  7920 PWs)   bands (ev):

  -128.4364 -82.6232 -82.6051 -82.5792 -19.4710  -9.9432  -9.4768  -9.3514
    -9.1904  -9.0767  -7.0314  -6.3921  -2.7890  -2.5705  -1.8808   0.2117
     4.3047   5.1662

     occupation numbers 
     1.0000   1.0000   1.0000   1.0000   1.0000   1.0000   1.0000   1.0000
     1.0000   1.0000   1.0000   1.0000   0.1165   0.0019   0.0000   0.0000
     0.0000   0.0000

          k = 0.0833 0.0833 0.0000 (  7870 PWs)   bands (ev):

  -128.4374 -82.6073 -82.6073 -82.5803 -20.1531  -9.9971  -9.9264  -9.1960
    -9.1921  -9.0527  -8.1505  -5.6717  -3.5171  -3.3551  -2.9135   0.9449
     1.8258   1.9826

     occupation numbers 
     1.0000   1.0000   1.0000   1.0000   1.0000   1.0000   1.0000   1.0000
     1.0000   1.0000   1.0000   1.0000   1.0010   1.0212   0.4438   0.0000
     0.0000   0.0000

          k = 0.0833 0.1667 0.0000 (  7854 PWs)   bands (ev):

  -128.4372 -82.6104 -82.6070 -82.5801 -20.0238  -9.9243  -9.7569  -9.2746
    -9.1809  -9.1177  -7.9922  -5.4754  -4.0187  -3.3158  -2.7012   1.3778
     2.2595   2.4159

     occupation numbers 
     1.0000   1.0000   1.0000   1.0000   1.0000   1.0000   1.0000   1.0000
     1.0000   1.0000   1.0000   1.0000   1.0000   1.0350   0.0296   0.0000
     0.0000   0.0000

          k = 0.0833 0.2500 0.0000 (  7876 PWs)   bands (ev):

  -128.4369 -82.6146 -82.6068 -82.5798 -19.8388  -9.8924  -9.5029  -9.3645
    -9.2136  -9.1484  -7.7144  -5.5282  -4.2472  -3.1828  -2.3873   2.0532
     2.9743   3.1212

     occupation numbers 
     1.0000   1.0000   1.0000   1.0000   1.0000   1.0000   1.0000   1.0000
     1.0000   1.0000   1.0000   1.0000   1.0000   1.0833   0.0000   0.0000
     0.0000   0.0000

          k = 0.0833 0.3333 0.0000 (  7864 PWs)   bands (ev):

  -128.4366 -82.6188 -82.6065 -82.5794 -19.6427  -9.8741  -9.4417  -9.3525
    -9.2413  -9.1333  -7.3392  -5.9671  -3.8212  -3.0230  -2.0351   2.7125
     2.9943   3.9727

     occupation numbers 
     1.0000   1.0000   1.0000   1.0000   1.0000   1.0000   1.0000   1.0000
     1.0000   1.0000   1.0000   1.0000   1.0000   0.8402   0.0000   0.0000
     0.0000   0.0000

          k = 0.0833 0.4167 0.0000 (  7894 PWs)   bands (ev):

  -128.4364 -82.6219 -82.6063 -82.5792 -19.4913  -9.8690  -9.4846  -9.3715
    -9.2004  -9.1147  -7.0328  -6.2557  -3.2838  -2.7414  -1.7731   1.0552
     4.0729   4.7359

     occupation numbers 
     1.0000   1.0000   1.0000   1.0000   1.0000   1.0000   1.0000   1.0000
     1.0000   1.0000   1.0000   1.0000   1.0491   0.0580   0.0000   0.0000
     0.0000   0.0000

          k = 0.0833-0.5000 0.0000 (  7904 PWs)   bands (ev):

  -128.4363 -82.6231 -82.6062 -82.5791 -19.4339  -9.8685  -9.5017  -9.3807
    -9.1995  -9.1035  -6.9567  -6.2914  -3.1262  -2.3507  -1.7640   0.3153
     4.4454   5.2412

     occupation numbers 
     1.0000   1.0000   1.0000   1.0000   1.0000   1.0000   1.0000   1.0000
     1.0000   1.0000   1.0000   1.0000   1.0579   0.0000   0.0000   0.0000
     0.0000   0.0000

          k = 0.1667 0.1667 0.0000 (  7864 PWs)   bands (ev):

  -128.4370 -82.6102 -82.6101 -82.5798 -19.8988  -9.7637  -9.6983  -9.2786
    -9.2365  -9.1955  -7.8155  -5.3466  -3.8395  -3.8058  -2.4900   1.7927
     2.6895   2.8450

     occupation numbers 
     1.0000   1.0000   1.0000   1.0000   1.0000   1.0000   1.0000   1.0000
     1.0000   1.0000   1.0000   1.0000   1.0000   1.0000   0.0002   0.0000
     0.0000   0.0000

          k = 0.1667 0.2500 0.0000 (  7859 PWs)   bands (ev):

  -128.4367 -82.6143 -82.6098 -82.5795 -19.7201  -9.7138  -9.5063  -9.3668
    -9.2633  -9.2300  -7.5150  -5.4143  -4.1121  -3.5195  -2.1751   2.4489
     3.4007   3.5462

     occupation numbers 
     1.0000   1.0000   1.0000   1.0000   1.0000   1.0000   1.0000   1.0000
     1.0000   1.0000   1.0000   1.0000   1.0000   1.0010   0.0000   0.0000
     0.0000   0.0000

          k = 0.1667 0.3333 0.0000 (  7846 PWs)   bands (ev):

  -128.4364 -82.6185 -82.6095 -82.5792 -19.5312  -9.6909  -9.4764  -9.4273
    -9.2330  -9.2114  -7.1281  -5.7674  -3.9865  -3.0617  -1.8136   3.0205
     3.3849   4.3949

     occupation numbers 
     1.0000   1.0000   1.0000   1.0000   1.0000   1.0000   1.0000   1.0000
     1.0000   1.0000   1.0000   1.0000   1.0000   0.9492   0.0000   0.0000
     0.0000   0.0000

          k = 0.1667 0.4167 0.0000 (  7870 PWs)   bands (ev):

  -128.4362 -82.6217 -82.6093 -82.5789 -19.3854  -9.6779  -9.5540  -9.4331
    -9.2560  -9.1368  -6.8245  -6.0012  -3.7952  -2.4466  -1.5118   1.3664
     4.4252   5.1080

     occupation numbers 
     1.0000   1.0000   1.0000   1.0000   1.0000   1.0000   1.0000   1.0000
     1.0000   1.0000   1.0000   1.0000   1.0000   0.0001   0.0000   0.0000
     0.0000   0.0000

          k = 0.1667-0.5000 0.0000 (  7874 PWs)   bands (ev):

  -128.4361 -82.6228 -82.6092 -82.5789 -19.3302  -9.6676  -9.5925  -9.4292
    -9.2754  -9.1129  -6.7465  -6.0254  -3.7200  -2.0174  -1.4188   0.5940
     4.8644   5.4342

     occupation numbers 
     1.0000   1.0000   1.0000   1.0000   1.0000   1.0000   1.0000   1.0000
     1.0000   1.0000   1.0000   1.0000   1.0000   0.0000   0.0000   0.0000
     0.0000   0.0000

          k = 0.2500 0.2500 0.0000 (  7842 PWs)   bands (ev):

  -128.4364 -82.6141 -82.6139 -82.5792 -19.5509  -9.5483  -9.5234  -9.3796
    -9.3221  -9.2623  -7.1949  -5.3391  -4.3968  -3.2532  -1.8551   3.0768
     4.1068   4.2410

     occupation numbers 
     1.0000   1.0000   1.0000   1.0000   1.0000   1.0000   1.0000   1.0000
     1.0000   1.0000   1.0000   1.0000   1.0000   1.0634   0.0000   0.0000
     0.0000   0.0000

          k = 0.2500 0.3333 0.0000 (  7834 PWs)   bands (ev):

  -128.4361 -82.6182 -82.6136 -82.5789 -19.3723  -9.6237  -9.4923  -9.3967
    -9.3153  -9.2001  -6.8071  -5.4930  -4.5149  -2.6536  -1.4754   3.4639
     3.9621   5.0881

     occupation numbers 
     1.0000   1.0000   1.0000   1.0000   1.0000   1.0000   1.0000   1.0000
     1.0000   1.0000   1.0000   1.0000   1.0000   0.0121   0.0000   0.0000
     0.0000   0.0000

          k = 0.2500 0.4167 0.0000 (  7841 PWs)   bands (ev):

  -128.4359 -82.6213 -82.6134 -82.5786 -19.2347  -9.6920  -9.5052  -9.4236
    -9.3321  -9.1076  -6.5118  -5.6627  -4.4235  -1.9727  -1.1013   1.8289
     4.9269   5.6652

     occupation numbers 
     1.0000   1.0000   1.0000   1.0000   1.0000   1.0000   1.0000   1.0000
     1.0000   1.0000   1.0000   1.0000   1.0000   0.0000   0.0000   0.0000
     0.0000   0.0000

          k = 0.2500-0.5000 0.0000 (  7850 PWs)   bands (ev):

  -128.4358 -82.6225 -82.6133 -82.5785 -19.1828  -9.7179  -9.4820  -9.4709
    -9.3356  -9.0759  -6.4314  -5.6816  -4.3706  -1.6008  -0.8578   1.0057
     5.5295   5.6292

     occupation numbers 
     1.0000   1.0000   1.0000   1.0000   1.0000   1.0000   1.0000   1.0000
     1.0000   1.0000   1.0000   1.0000   1.0000   0.0000   0.0000   0.0000
     0.0000   0.0000

          k = 0.3333 0.3333 0.0000 (  7832 PWs)   bands (ev):

  -128.4358 -82.6179 -82.6178 -82.5785 -19.2049  -9.7246  -9.5432  -9.4095
    -9.1862  -9.1691  -6.4338  -5.2484  -4.9829  -2.0371  -1.0537   3.5941
     4.4914   5.3395

     occupation numbers 
     1.0000   1.0000   1.0000   1.0000   1.0000   1.0000   1.0000   1.0000
     1.0000   1.0000   1.0000   1.0000   1.0000   0.0000   0.0000   0.0000
     0.0000   0.0000

          k = 0.3333 0.4167 0.0000 (  7838 PWs)   bands (ev):

  -128.4356 -82.6209 -82.6176 -82.5783 -19.0764  -9.7956  -9.5775  -9.4897
    -9.1697  -9.0260  -6.1458  -5.3635  -4.9370  -1.4200  -0.5396   2.3741
     4.9329   5.8124

     occupation numbers 
     1.0000   1.0000   1.0000   1.0000   1.0000   1.0000   1.0000   1.0000
     1.0000   1.0000   1.0000   1.0000   1.0000   0.0000   0.0000   0.0000
     0.0000   0.0000

          k = 0.3333-0.5000 0.0000 (  7856 PWs)   bands (ev):

  -128.4356 -82.6221 -82.6175 -82.5782 -19.0280  -9.8202  -9.5590  -9.5545
    -9.1645  -8.9766  -6.0624  -5.4137  -4.8616  -1.1584  -0.0910   1.5213
     5.1618   6.1903

     occupation numbers 
     1.0000   1.0000   1.0000   1.0000   1.0000   1.0000   1.0000   1.0000
     1.0000   1.0000   1.0000   1.0000   1.0000   0.0000   0.0000   0.0000
     0.0000   0.0000

          k = 0.4167 0.4167 0.0000 (  7842 PWs)   bands (ev):

  -128.4354 -82.6207 -82.6206 -82.5781 -18.9550  -9.8556  -9.6367  -9.5789
    -9.1125  -8.8821  -5.8391  -5.4331  -4.9648  -0.9726   0.2227   2.6320
     3.7464   5.9899

     occupation numbers 
     1.0000   1.0000   1.0000   1.0000   1.0000   1.0000   1.0000   1.0000
     1.0000   1.0000   1.0000   1.0000   1.0000   0.0000   0.0000   0.0000
     0.0000   0.0000

          k = 0.4167-0.5000 0.0000 (  7830 PWs)   bands (ev):

  -128.4353 -82.6218 -82.6206 -82.5780 -18.9093  -9.8726  -9.6425  -9.6339
    -9.1008  -8.8222  -5.7412  -5.5074  -4.8873  -0.8044   0.8854   2.0469
     3.6247   6.0616

     occupation numbers 
     1.0000   1.0000   1.0000   1.0000   1.0000   1.0000   1.0000   1.0000
     1.0000   1.0000   1.0000   1.0000   1.0000   0.0000   0.0000   0.0000
     0.0000   0.0000

          k =-0.5000-0.5000 0.0000 (  7904 PWs)   bands (ev):

  -128.4353 -82.6217 -82.6217 -82.5779 -18.8647  -9.8838  -9.6727  -9.6727
    -9.0870  -8.7572  -5.6094  -5.6094  -4.8199  -0.6665   1.9442   2.3030
     2.3030   6.0054

     occupation numbers 
     1.0000   1.0000   1.0000   1.0000   1.0000   1.0000   1.0000   1.0000
     1.0000   1.0000   1.0000   1.0000   1.0000   0.0000   0.0000   0.0000
     0.0000   0.0000

     the Fermi energy is    -2.9011 ev

!    total energy              =    -504.06387961 Ry
     estimated scf accuracy    <          1.3E-09 Ry
     smearing contrib. (-TS)   =       0.00042237 Ry
     internal energy E=F+TS    =    -504.06430199 Ry

     The total energy is F=E-TS. E is the sum of the following terms:
     one-electron contribution =   -2799.60008398 Ry
     hartree contribution      =    1398.32634447 Ry
     xc contribution           =     -49.85133258 Ry
     ewald contribution        =     956.60834294 Ry
     one-center paw contrib.   =      -9.54757283 Ry
      -> PAW hartree energy AE =      23.71287491 Ry
      -> PAW hartree energy PS =     -23.61266764 Ry
      -> PAW xc energy AE      =     -16.30240269 Ry
      -> PAW xc energy PS      =       6.65462259 Ry
      -> total E_H with PAW    =    1398.42655174 Ry
      -> total E_XC with PAW   =     -59.49911268 Ry

     convergence has been achieved in  14 iterations

     negative rho (up, down):  1.302E-04 0.000E+00

     Forces acting on atoms (cartesian axes, Ry/au):

     atom    1 type  2   force =     0.00000000    0.00000000    0.11102534
     atom    2 type  1   force =     0.00000000    0.00000000   -0.01418978
     atom    3 type  3   force =     0.00000000    0.00000000   -0.09683556
     The non-local contrib.  to forces
     atom    1 type  2   force =     0.00000000    0.00000000   -0.66369949
     atom    2 type  1   force =     0.00000000    0.00000000   -0.15576048
     atom    3 type  3   force =     0.00000000    0.00000000   -0.00465443
     The ionic contribution  to forces
     atom    1 type  2   force =    -0.00000000   -0.00000000  -52.53013296
     atom    2 type  1   force =    -0.00000000   -0.00000000   42.49273404
     atom    3 type  3   force =     0.00000000    0.00000000   10.03739892
     The local contribution  to forces
     atom    1 type  2   force =    -0.00000000    0.00000000   53.30465492
     atom    2 type  1   force =     0.00000000    0.00000000  -42.35169124
     atom    3 type  3   force =     0.00000000    0.00000000  -10.12955381
     The core correction contribution to forces
     atom    1 type  2   force =     0.00000000    0.00000000    0.00000000
     atom    2 type  1   force =     0.00000000    0.00000000    0.00053613
     atom    3 type  3   force =     0.00000000    0.00000000    0.00000000
     The Hubbard contrib.    to forces
     atom    1 type  2   force =     0.00000000    0.00000000    0.00000000
     atom    2 type  1   force =     0.00000000    0.00000000    0.00000000
     atom    3 type  3   force =     0.00000000    0.00000000    0.00000000
     The SCF correction term to forces
     atom    1 type  2   force =     0.00000000    0.00000000    0.00023474
     atom    2 type  1   force =    -0.00000000    0.00000000    0.00002365
     atom    3 type  3   force =    -0.00000000    0.00000000    0.00000565

     Total force =     0.148004     Total SCF correction =     0.000236


     Computing stress (Cartesian axis) and pressure


     negative rho (up, down):  1.302E-04 0.000E+00
          total   stress  (Ry/bohr**3)                   (kbar)     P=      -26.88
  -0.00003390   0.00000000   0.00000000           -4.99        0.00        0.00
   0.00000000  -0.00003390   0.00000000            0.00       -4.99        0.00
   0.00000000   0.00000000  -0.00048047            0.00        0.00      -70.68

     kinetic stress (kbar)   4308.11      0.00      0.00
                                0.00   4308.11      0.00
                                0.00      0.00   4151.11

     local   stress (kbar)-271032.07      0.00      0.00
                                0.00-271032.07      0.00
                                0.00      0.00 271591.81

     nonloc. stress (kbar)    -73.09      0.00      0.00
                                0.00    -73.09      0.00
                                0.00      0.00    -76.20

     hartree stress (kbar) 141571.79     -0.00     -0.00
                               -0.00 141571.79      0.00
                               -0.00      0.00-126870.52

     exc-cor stress (kbar)  -1730.12     -0.00      0.00
                               -0.00  -1730.12      0.00
                                0.00      0.00  -1731.90

     corecor stress (kbar)    -47.62     -0.00      0.00
                               -0.00    -47.62     -0.00
                                0.00     -0.00    -46.85

     ewald   stress (kbar) 126998.01      0.00      0.00
                                0.00 126998.01      0.00
                                0.00      0.00-147088.12

     hubbard stress (kbar)      0.00      0.00      0.00
                                0.00      0.00      0.00
                                0.00      0.00      0.00

     DFT-D   stress (kbar)      0.00      0.00      0.00
                                0.00      0.00      0.00
                                0.00      0.00      0.00

     XDM     stress (kbar)      0.00      0.00      0.00
                                0.00      0.00      0.00
                                0.00      0.00      0.00

     dft-nl  stress (kbar)      0.00      0.00      0.00
                                0.00      0.00      0.00
                                0.00      0.00      0.00

     TS-vdW  stress (kbar)      0.00      0.00      0.00
                                0.00      0.00      0.00
                                0.00      0.00      0.00

     MDB     stress (kbar)      0.00      0.00      0.00
                                0.00      0.00      0.00
                                0.00      0.00      0.00

     3D-RISM stress (kbar)      0.00      0.00      0.00
                                0.00      0.00      0.00
                                0.00      0.00      0.00


     Writing all to output data dir ./temp_cubic/aiida.save/ :
     XML data file, charge density, pseudopotentials, collected wavefunctions

     init_run     :     75.55s CPU      4.04s WALL (       1 calls)
     electrons    :   2331.20s CPU    120.75s WALL (       1 calls)
     forces       :     21.14s CPU      1.34s WALL (       1 calls)
     stress       :     25.54s CPU      3.81s WALL (       1 calls)

     Called by init_run:
     wfcinit      :     69.09s CPU      3.09s WALL (       1 calls)
     wfcinit:atom :      0.81s CPU      0.05s WALL (      28 calls)
     wfcinit:wfcr :     64.58s CPU      2.84s WALL (      28 calls)
     potinit      :      2.74s CPU      0.19s WALL (       1 calls)
     hinit0       :      1.74s CPU      0.30s WALL (       1 calls)

     Called by electrons:
     c_bands      :   1936.18s CPU     93.03s WALL (      14 calls)
     sum_band     :    346.83s CPU     20.49s WALL (      14 calls)
     v_of_rho     :     14.27s CPU      1.15s WALL (      15 calls)
     v_h          :      2.10s CPU      0.15s WALL (      15 calls)
     v_xc         :     13.78s CPU      1.13s WALL (      17 calls)
     newd         :     20.83s CPU      5.75s WALL (      15 calls)
     PAW_pot      :      6.09s CPU      0.27s WALL (      15 calls)
     mix_rho      :      5.01s CPU      0.27s WALL (      14 calls)

     Called by c_bands:
     init_us_2    :     25.58s CPU      1.58s WALL (     868 calls)
     cegterg      :   1903.54s CPU     90.96s WALL (     392 calls)

     Called by sum_band:
     sum_band:wei :      0.00s CPU      0.00s WALL (      14 calls)
     sum_band:loo :    333.94s CPU     14.06s WALL (      14 calls)
     sum_band:buf :      1.66s CPU      0.10s WALL (     392 calls)
     sum_band:ini :     12.32s CPU      0.57s WALL (     392 calls)
     sum_band:cal :     65.30s CPU      2.34s WALL (     392 calls)
     sum_band:bec :      7.76s CPU      0.35s WALL (     392 calls)
     addusdens    :     11.42s CPU      6.14s WALL (      14 calls)
                                        0.00s GPU  (      14 calls)
     addusd:skk   :      0.02s CPU      0.02s WALL (      42 calls)
                                        0.00s GPU  (      42 calls)

     Called by *egterg:
     cdiaghg      :      5.81s CPU      0.38s WALL (    1560 calls)
     cegterg:over :    107.78s CPU      5.59s WALL (    1168 calls)
     cegterg:upda :     47.99s CPU      4.19s WALL (    1168 calls)
     cegterg:last :     41.37s CPU      6.26s WALL (     678 calls)
     h_psi        :   1561.08s CPU     66.96s WALL (    1588 calls)
     s_psi        :     99.66s CPU      5.21s WALL (    1588 calls)
     g_psi        :     10.77s CPU      0.61s WALL (    1168 calls)

     Called by h_psi:
     h_psi:calbec :    147.55s CPU      5.36s WALL (    1588 calls)
     vloc_psi     :   1287.82s CPU     55.51s WALL (    1588 calls)
     add_vuspsi   :    109.95s CPU      5.22s WALL (    1588 calls)

     General routines
     calbec       :    231.28s CPU      8.48s WALL (    2120 calls)
     fft          :     12.73s CPU      1.11s WALL (     218 calls)
     ffts         :      1.50s CPU      0.05s WALL (      29 calls)
     fftw         :    888.07s CPU     39.24s WALL (   39684 calls)
     interpolate  :      2.97s CPU      0.13s WALL (      15 calls)

     Parallel routines

     PAW routines
     PAW_pot      :      6.09s CPU      0.27s WALL (      15 calls)
     PAW_symme    :      0.00s CPU      0.00s WALL (      29 calls)

     PWSCF        :  41m 3.79s CPU   2m11.31s WALL


   This run was terminated on:  20:48:36  14Jun2024            

=------------------------------------------------------------------------------=
   JOB DONE.
=------------------------------------------------------------------------------=
