
     Program PWSCF v.7.3.1 starts on 14Jun2024 at 20:57:49 

     This program is part of the open-source Quantum ESPRESSO suite
     for quantum simulation of materials; please cite
         "P. Giannozzi et al., J. Phys.:Condens. Matter 21 395502 (2009);
         "P. Giannozzi et al., J. Phys.:Condens. Matter 29 465901 (2017);
         "P. Giannozzi et al., J. Chem. Phys. 152 154105 (2020);
          URL http://www.quantum-espresso.org", 
     in publications or presentations arising from this work. More details at
     http://www.quantum-espresso.org/quote

     Parallel version (MPI & OpenMP), running on      24 processor cores
     Number of MPI processes:                 1
     Threads/MPI process:                    24

     MPI processes distributed on     1 nodes
     5458 MiB available memory on the printing compute node when the environment starts

     Waiting for input...
     Reading input from standard input

     Current dimensions of program PWSCF are:
     Max number of different atomic species (ntypx) = 10
     Max number of k-points (npk) =  40000
     Max angular momentum in pseudopotentials (lmaxx) =  4
     file O.pbe-n-kjpaw_psl.0.1.UPF: wavefunction(s)  2P renormalized
     Message from routine setup:
     using ibrav=0 with symmetry is DISCOURAGED, use correct ibrav instead

     Subspace diagonalization in iterative solution of the eigenvalue problem:
     a serial algorithm will be used


     G-vector sticks info
     --------------------
     sticks:   dense  smooth     PW     G-vecs:    dense   smooth      PW
     Sum         829     421    137               177743    63081   11257

     Using Slab Decomposition



     bravais-lattice index     =            0
     lattice parameter (alat)  =       5.0869  a.u.
     unit-cell volume          =    1316.2915 (a.u.)^3
     number of atoms/cell      =            3
     number of atomic types    =            3
     number of electrons       =        27.00
     number of Kohn-Sham states=           18
     kinetic-energy cutoff     =      50.0000  Ry
     charge density cutoff     =     400.0000  Ry
     scf convergence threshold =      1.0E-08
     mixing beta               =       0.4000
     number of iterations used =            8  plain     mixing
     Exchange-correlation= PBE
                           (   1   4   3   4   0   0   0)

     celldm(1)=   5.086871  celldm(2)=   0.000000  celldm(3)=   0.000000
     celldm(4)=   0.000000  celldm(5)=   0.000000  celldm(6)=   0.000000

     crystal axes: (cart. coord. in units of alat)
               a(1) = (   1.000000   0.000000   0.000000 )  
               a(2) = (   0.000000   1.000000   0.000000 )  
               a(3) = (   0.000000   0.000000  10.000000 )  

     reciprocal axes: (cart. coord. in units 2 pi/alat)
               b(1) = (  1.000000  0.000000  0.000000 )  
               b(2) = (  0.000000  1.000000  0.000000 )  
               b(3) = (  0.000000  0.000000  0.100000 )  


     PseudoPot. # 1 for O  read from file:
     ../SSSP_1.3.0_PBE_efficiency/O.pbe-n-kjpaw_psl.0.1.UPF
     MD5 check sum: 0234752ac141de4415c5fc33072bef88
     Pseudo is Projector augmented-wave + core cor, Zval =  6.0
     Generated using "atomic" code by A. Dal Corso  v.5.0.99 svn rev. 10869
     Shape of augmentation charge: BESSEL
     Using radial grid of 1095 points,  4 beta functions with: 
                l(1) =   0
                l(2) =   0
                l(3) =   1
                l(4) =   1
     Q(r) pseudized with 0 coefficients 


     PseudoPot. # 2 for Zn read from file:
     ../SSSP_1.3.0_PBE_efficiency/Zn_pbe_v1.uspp.F.UPF
     MD5 check sum: df62231357ef9e81f77b2b3087fa5675
     Pseudo is Ultrasoft, Zval = 20.0
     Generated by new atomic code, or converted to UPF format
     Using radial grid of  943 points,  6 beta functions with: 
                l(1) =   0
                l(2) =   0
                l(3) =   1
                l(4) =   1
                l(5) =   2
                l(6) =   2
     Q(r) pseudized with  8 coefficients,  rinner =    1.100   1.100   1.100
                                                       1.100   1.100

     PseudoPot. # 3 for H  read from file:
     ../SSSP_1.3.0_PBE_efficiency/H.pbe-rrkjus_psl.1.0.0.UPF
     MD5 check sum: f52b6d4d1c606e5624b1dc7b2218f220
     Pseudo is Ultrasoft, Zval =  1.0
     Generated using "atomic" code by A. Dal Corso  v.5.1
     Using radial grid of  929 points,  2 beta functions with: 
                l(1) =   0
                l(2) =   0
     Q(r) pseudized with 0 coefficients 


     atomic species   valence    mass     pseudopotential
     O                 6.00    15.99940     O ( 1.00)
     Zn               20.00    65.38000     Zn( 1.00)
     H                 1.00     1.00794     H ( 1.00)

      8 Sym. Ops. (no inversion) found


                                    s                        frac. trans.

      isym =  1     identity                                     

 cryst.   s( 1) = (     1          0          0      )
                  (     0          1          0      )
                  (     0          0          1      )

 cart.    s( 1) = (  1.0000000  0.0000000  0.0000000 )
                  (  0.0000000  1.0000000  0.0000000 )
                  (  0.0000000  0.0000000  1.0000000 )


      isym =  2     180 deg rotation - cart. axis [0,0,1]        

 cryst.   s( 2) = (    -1          0          0      )
                  (     0         -1          0      )
                  (     0          0          1      )

 cart.    s( 2) = ( -1.0000000  0.0000000  0.0000000 )
                  (  0.0000000 -1.0000000  0.0000000 )
                  (  0.0000000  0.0000000  1.0000000 )


      isym =  3      90 deg rotation - cart. axis [0,0,-1]       

 cryst.   s( 3) = (     0         -1          0      )
                  (     1          0          0      )
                  (     0          0          1      )

 cart.    s( 3) = (  0.0000000  1.0000000  0.0000000 )
                  ( -1.0000000  0.0000000  0.0000000 )
                  (  0.0000000  0.0000000  1.0000000 )


      isym =  4      90 deg rotation - cart. axis [0,0,1]        

 cryst.   s( 4) = (     0          1          0      )
                  (    -1          0          0      )
                  (     0          0          1      )

 cart.    s( 4) = (  0.0000000 -1.0000000  0.0000000 )
                  (  1.0000000  0.0000000  0.0000000 )
                  (  0.0000000  0.0000000  1.0000000 )


      isym =  5     inv. 180 deg rotation - cart. axis [0,1,0]   

 cryst.   s( 5) = (     1          0          0      )
                  (     0         -1          0      )
                  (     0          0          1      )

 cart.    s( 5) = (  1.0000000  0.0000000  0.0000000 )
                  (  0.0000000 -1.0000000  0.0000000 )
                  (  0.0000000  0.0000000  1.0000000 )


      isym =  6     inv. 180 deg rotation - cart. axis [1,0,0]   

 cryst.   s( 6) = (    -1          0          0      )
                  (     0          1          0      )
                  (     0          0          1      )

 cart.    s( 6) = ( -1.0000000  0.0000000  0.0000000 )
                  (  0.0000000  1.0000000  0.0000000 )
                  (  0.0000000  0.0000000  1.0000000 )


      isym =  7     inv. 180 deg rotation - cart. axis [1,1,0]   

 cryst.   s( 7) = (     0         -1          0      )
                  (    -1          0          0      )
                  (     0          0          1      )

 cart.    s( 7) = (  0.0000000 -1.0000000  0.0000000 )
                  ( -1.0000000  0.0000000  0.0000000 )
                  (  0.0000000  0.0000000  1.0000000 )


      isym =  8     inv. 180 deg rotation - cart. axis [1,-1,0]  

 cryst.   s( 8) = (     0          1          0      )
                  (     1          0          0      )
                  (     0          0          1      )

 cart.    s( 8) = (  0.0000000  1.0000000  0.0000000 )
                  (  1.0000000  0.0000000  0.0000000 )
                  (  0.0000000  0.0000000  1.0000000 )


   Cartesian axes

     site n.     atom                  positions (alat units)
         1        Zn     tau(   1) = (   0.0000000   0.0000000   0.0000000  )
         2        O      tau(   2) = (   0.5000000   0.5000000   0.5000000  )
         3        H      tau(   3) = (   0.5000000   0.5000000   0.9000000  )

   Crystallographic axes

     site n.     atom                  positions (cryst. coord.)
         1        Zn     tau(   1) = (  0.0000000  0.0000000  0.0000000  )
         2        O      tau(   2) = (  0.5000000  0.5000000  0.0500000  )
         3        H      tau(   3) = (  0.5000000  0.5000000  0.0900000  )

     number of k points=    28  Marzari-Vanderbilt smearing, width (Ry)=  0.0147
                       cart. coord. in units 2pi/alat
        k(    1) = (   0.0000000   0.0000000   0.0000000), wk =   0.0138889
        k(    2) = (   0.0000000   0.0833333   0.0000000), wk =   0.0555556
        k(    3) = (   0.0000000   0.1666667   0.0000000), wk =   0.0555556
        k(    4) = (   0.0000000   0.2500000   0.0000000), wk =   0.0555556
        k(    5) = (   0.0000000   0.3333333   0.0000000), wk =   0.0555556
        k(    6) = (   0.0000000   0.4166667   0.0000000), wk =   0.0555556
        k(    7) = (   0.0000000  -0.5000000   0.0000000), wk =   0.0277778
        k(    8) = (   0.0833333   0.0833333   0.0000000), wk =   0.0555556
        k(    9) = (   0.0833333   0.1666667   0.0000000), wk =   0.1111111
        k(   10) = (   0.0833333   0.2500000   0.0000000), wk =   0.1111111
        k(   11) = (   0.0833333   0.3333333   0.0000000), wk =   0.1111111
        k(   12) = (   0.0833333   0.4166667   0.0000000), wk =   0.1111111
        k(   13) = (   0.0833333  -0.5000000   0.0000000), wk =   0.0555556
        k(   14) = (   0.1666667   0.1666667   0.0000000), wk =   0.0555556
        k(   15) = (   0.1666667   0.2500000   0.0000000), wk =   0.1111111
        k(   16) = (   0.1666667   0.3333333   0.0000000), wk =   0.1111111
        k(   17) = (   0.1666667   0.4166667   0.0000000), wk =   0.1111111
        k(   18) = (   0.1666667  -0.5000000   0.0000000), wk =   0.0555556
        k(   19) = (   0.2500000   0.2500000   0.0000000), wk =   0.0555556
        k(   20) = (   0.2500000   0.3333333   0.0000000), wk =   0.1111111
        k(   21) = (   0.2500000   0.4166667   0.0000000), wk =   0.1111111
        k(   22) = (   0.2500000  -0.5000000   0.0000000), wk =   0.0555556
        k(   23) = (   0.3333333   0.3333333   0.0000000), wk =   0.0555556
        k(   24) = (   0.3333333   0.4166667   0.0000000), wk =   0.1111111
        k(   25) = (   0.3333333  -0.5000000   0.0000000), wk =   0.0555556
        k(   26) = (   0.4166667   0.4166667   0.0000000), wk =   0.0555556
        k(   27) = (   0.4166667  -0.5000000   0.0000000), wk =   0.0555556
        k(   28) = (  -0.5000000  -0.5000000   0.0000000), wk =   0.0138889

                       cryst. coord.
        k(    1) = (   0.0000000   0.0000000   0.0000000), wk =   0.0138889
        k(    2) = (   0.0000000   0.0833333   0.0000000), wk =   0.0555556
        k(    3) = (   0.0000000   0.1666667   0.0000000), wk =   0.0555556
        k(    4) = (   0.0000000   0.2500000   0.0000000), wk =   0.0555556
        k(    5) = (   0.0000000   0.3333333   0.0000000), wk =   0.0555556
        k(    6) = (   0.0000000   0.4166667   0.0000000), wk =   0.0555556
        k(    7) = (   0.0000000  -0.5000000   0.0000000), wk =   0.0277778
        k(    8) = (   0.0833333   0.0833333   0.0000000), wk =   0.0555556
        k(    9) = (   0.0833333   0.1666667   0.0000000), wk =   0.1111111
        k(   10) = (   0.0833333   0.2500000   0.0000000), wk =   0.1111111
        k(   11) = (   0.0833333   0.3333333   0.0000000), wk =   0.1111111
        k(   12) = (   0.0833333   0.4166667   0.0000000), wk =   0.1111111
        k(   13) = (   0.0833333  -0.5000000   0.0000000), wk =   0.0555556
        k(   14) = (   0.1666667   0.1666667   0.0000000), wk =   0.0555556
        k(   15) = (   0.1666667   0.2500000   0.0000000), wk =   0.1111111
        k(   16) = (   0.1666667   0.3333333   0.0000000), wk =   0.1111111
        k(   17) = (   0.1666667   0.4166667   0.0000000), wk =   0.1111111
        k(   18) = (   0.1666667  -0.5000000   0.0000000), wk =   0.0555556
        k(   19) = (   0.2500000   0.2500000   0.0000000), wk =   0.0555556
        k(   20) = (   0.2500000   0.3333333   0.0000000), wk =   0.1111111
        k(   21) = (   0.2500000   0.4166667   0.0000000), wk =   0.1111111
        k(   22) = (   0.2500000  -0.5000000   0.0000000), wk =   0.0555556
        k(   23) = (   0.3333333   0.3333333   0.0000000), wk =   0.0555556
        k(   24) = (   0.3333333   0.4166667   0.0000000), wk =   0.1111111
        k(   25) = (   0.3333333  -0.5000000   0.0000000), wk =   0.0555556
        k(   26) = (   0.4166667   0.4166667   0.0000000), wk =   0.0555556
        k(   27) = (   0.4166667  -0.5000000   0.0000000), wk =   0.0555556
        k(   28) = (  -0.5000000  -0.5000000   0.0000000), wk =   0.0138889

     Dense  grid:   177743 G-vectors     FFT dimensions: (  36,  36, 324)

     Smooth grid:    63081 G-vectors     FFT dimensions: (  24,  24, 240)

     Dynamical RAM for                 wfc:       2.16 MB

     Dynamical RAM for     wfc (w. buffer):      62.60 MB

     Dynamical RAM for           str. fact:       8.14 MB

     Dynamical RAM for           local pot:       0.00 MB

     Dynamical RAM for          nlocal pot:       3.36 MB

     Dynamical RAM for                qrad:       4.82 MB

     Dynamical RAM for          rho,v,vnew:      17.75 MB

     Dynamical RAM for               rhoin:       5.92 MB

     Dynamical RAM for            rho*nmix:      43.39 MB

     Dynamical RAM for           G-vectors:      10.65 MB

     Dynamical RAM for          h,s,v(r/c):       0.06 MB

     Dynamical RAM for          <psi|beta>:       0.01 MB

     Dynamical RAM for                 psi:       4.32 MB

     Dynamical RAM for                hpsi:       4.32 MB

     Dynamical RAM for                spsi:       4.32 MB

     Dynamical RAM for      wfcinit/wfcrot:       4.32 MB

     Dynamical RAM for           addusdens:     507.17 MB

     Dynamical RAM for          addusforce:     508.53 MB

     Dynamical RAM for         addusstress:     545.14 MB

     Estimated static dynamical RAM per process >     140.09 MB

     Estimated max dynamical RAM per process >     728.62 MB

     Initial potential from superposition of free atoms

     starting charge      26.9998, renormalised to      27.0000

     negative rho (up, down):  1.382E-04 0.000E+00
     Starting wfcs are   18 randomized atomic wfcs
     Checking if some PAW data can be deallocated... 

     total cpu time spent up to now is        4.5 secs

     Self-consistent Calculation

     iteration #  1     ecut=    50.00 Ry     beta= 0.40
     Davidson diagonalization with overlap

---- Real-time Memory Report at c_bands before calling an iterative solver
           611 MiB given to the printing process from OS
             0 MiB allocation reported by mallinfo(arena+hblkhd)
          5307 MiB available memory on the node where the printing process lives
------------------
     ethr =  1.00E-02,  avg # of iterations =  6.5

     negative rho (up, down):  7.651E-05 0.000E+00

     total cpu time spent up to now is       14.8 secs

     total energy              =    -504.13351398 Ry
     estimated scf accuracy    <       0.60366153 Ry

     iteration #  2     ecut=    50.00 Ry     beta= 0.40
     Davidson diagonalization with overlap

---- Real-time Memory Report at c_bands before calling an iterative solver
           697 MiB given to the printing process from OS
             0 MiB allocation reported by mallinfo(arena+hblkhd)
          5286 MiB available memory on the node where the printing process lives
------------------
     ethr =  2.24E-03,  avg # of iterations =  3.9

     negative rho (up, down):  6.706E-05 0.000E+00

     total cpu time spent up to now is       24.1 secs

     total energy              =    -504.16117128 Ry
     estimated scf accuracy    <       0.67550661 Ry

     iteration #  3     ecut=    50.00 Ry     beta= 0.40
     Davidson diagonalization with overlap

---- Real-time Memory Report at c_bands before calling an iterative solver
           703 MiB given to the printing process from OS
             0 MiB allocation reported by mallinfo(arena+hblkhd)
          5278 MiB available memory on the node where the printing process lives
------------------
     ethr =  2.24E-03,  avg # of iterations =  2.4

     negative rho (up, down):  8.761E-05 0.000E+00

     total cpu time spent up to now is       32.8 secs

     total energy              =    -504.31609627 Ry
     estimated scf accuracy    <       0.11074034 Ry

     iteration #  4     ecut=    50.00 Ry     beta= 0.40
     Davidson diagonalization with overlap

---- Real-time Memory Report at c_bands before calling an iterative solver
           707 MiB given to the printing process from OS
             0 MiB allocation reported by mallinfo(arena+hblkhd)
          5274 MiB available memory on the node where the printing process lives
------------------
     ethr =  4.10E-04,  avg # of iterations =  2.4

     negative rho (up, down):  1.117E-04 0.000E+00

     total cpu time spent up to now is       41.3 secs

     total energy              =    -504.30906812 Ry
     estimated scf accuracy    <       0.02915046 Ry

     iteration #  5     ecut=    50.00 Ry     beta= 0.40
     Davidson diagonalization with overlap

---- Real-time Memory Report at c_bands before calling an iterative solver
           709 MiB given to the printing process from OS
             0 MiB allocation reported by mallinfo(arena+hblkhd)
          5270 MiB available memory on the node where the printing process lives
------------------
     ethr =  1.08E-04,  avg # of iterations =  5.3

     negative rho (up, down):  1.241E-04 0.000E+00

     total cpu time spent up to now is       51.6 secs

     total energy              =    -504.31555179 Ry
     estimated scf accuracy    <       0.00247247 Ry

     iteration #  6     ecut=    50.00 Ry     beta= 0.40
     Davidson diagonalization with overlap

---- Real-time Memory Report at c_bands before calling an iterative solver
           710 MiB given to the printing process from OS
             0 MiB allocation reported by mallinfo(arena+hblkhd)
          5269 MiB available memory on the node where the printing process lives
------------------
     ethr =  9.16E-06,  avg # of iterations =  4.7

     negative rho (up, down):  1.327E-04 0.000E+00

     total cpu time spent up to now is       60.6 secs

     total energy              =    -504.31556866 Ry
     estimated scf accuracy    <       0.00075802 Ry

     iteration #  7     ecut=    50.00 Ry     beta= 0.40
     Davidson diagonalization with overlap

---- Real-time Memory Report at c_bands before calling an iterative solver
           714 MiB given to the printing process from OS
             0 MiB allocation reported by mallinfo(arena+hblkhd)
          5266 MiB available memory on the node where the printing process lives
------------------
     ethr =  2.81E-06,  avg # of iterations =  3.4

     negative rho (up, down):  1.383E-04 0.000E+00

     total cpu time spent up to now is       70.1 secs

     total energy              =    -504.31555643 Ry
     estimated scf accuracy    <       0.00023659 Ry

     iteration #  8     ecut=    50.00 Ry     beta= 0.40
     Davidson diagonalization with overlap

---- Real-time Memory Report at c_bands before calling an iterative solver
           716 MiB given to the printing process from OS
             0 MiB allocation reported by mallinfo(arena+hblkhd)
          5264 MiB available memory on the node where the printing process lives
------------------
     ethr =  8.76E-07,  avg # of iterations =  3.0

     negative rho (up, down):  1.414E-04 0.000E+00

     total cpu time spent up to now is       79.2 secs

     total energy              =    -504.31554021 Ry
     estimated scf accuracy    <       0.00006773 Ry

     iteration #  9     ecut=    50.00 Ry     beta= 0.40
     Davidson diagonalization with overlap

---- Real-time Memory Report at c_bands before calling an iterative solver
           719 MiB given to the printing process from OS
             0 MiB allocation reported by mallinfo(arena+hblkhd)
          5259 MiB available memory on the node where the printing process lives
------------------
     ethr =  2.51E-07,  avg # of iterations =  2.7

     negative rho (up, down):  1.432E-04 0.000E+00

     total cpu time spent up to now is       87.5 secs

     total energy              =    -504.31555493 Ry
     estimated scf accuracy    <       0.00000191 Ry

     iteration # 10     ecut=    50.00 Ry     beta= 0.40
     Davidson diagonalization with overlap

---- Real-time Memory Report at c_bands before calling an iterative solver
           720 MiB given to the printing process from OS
             0 MiB allocation reported by mallinfo(arena+hblkhd)
          5260 MiB available memory on the node where the printing process lives
------------------
     ethr =  7.07E-09,  avg # of iterations =  2.0

     negative rho (up, down):  1.442E-04 0.000E+00

     total cpu time spent up to now is       97.0 secs

     total energy              =    -504.31555549 Ry
     estimated scf accuracy    <       0.00000028 Ry

     iteration # 11     ecut=    50.00 Ry     beta= 0.40
     Davidson diagonalization with overlap

---- Real-time Memory Report at c_bands before calling an iterative solver
           721 MiB given to the printing process from OS
             0 MiB allocation reported by mallinfo(arena+hblkhd)
          5263 MiB available memory on the node where the printing process lives
------------------
     ethr =  1.02E-09,  avg # of iterations =  2.0

     negative rho (up, down):  1.447E-04 0.000E+00

     total cpu time spent up to now is      106.1 secs

     total energy              =    -504.31555552 Ry
     estimated scf accuracy    <       0.00000003 Ry

     iteration # 12     ecut=    50.00 Ry     beta= 0.40
     Davidson diagonalization with overlap

---- Real-time Memory Report at c_bands before calling an iterative solver
           721 MiB given to the printing process from OS
             0 MiB allocation reported by mallinfo(arena+hblkhd)
          5262 MiB available memory on the node where the printing process lives
------------------
     ethr =  1.12E-10,  avg # of iterations =  2.0

     negative rho (up, down):  1.455E-04 0.000E+00

     total cpu time spent up to now is      114.5 secs

     End of self-consistent calculation

          k = 0.0000 0.0000 0.0000 (  7831 PWs)   bands (ev):

  -127.6622 -81.8449 -81.8449 -81.7907 -20.9597 -10.4494  -9.2424  -8.4196
    -8.4033  -8.4033  -8.2592  -5.2662  -2.9300  -2.9300  -0.5018   1.1457
     1.5593   1.7858

     occupation numbers 
     1.0000   1.0000   1.0000   1.0000   1.0000   1.0000   1.0000   1.0000
     1.0000   1.0000   1.0000   1.0000   1.0000   1.0000   0.0000   0.0000
     0.0000   0.0000

          k = 0.0000 0.0833 0.0000 (  7841 PWs)   bands (ev):

  -127.6621 -81.8460 -81.8448 -81.7906 -20.9174 -10.3636  -9.2154  -8.4755
    -8.3991  -8.3792  -8.2818  -5.1696  -3.2316  -2.9029  -0.3298   1.3039
     1.7106   1.9260

     occupation numbers 
     1.0000   1.0000   1.0000   1.0000   1.0000   1.0000   1.0000   1.0000
     1.0000   1.0000   1.0000   1.0000   1.0000   1.0000   0.0000   0.0000
     0.0000   0.0000

          k = 0.0000 0.1667 0.0000 (  7857 PWs)   bands (ev):

  -127.6619 -81.8492 -81.8446 -81.7904 -20.7991 -10.1266  -9.1435  -8.5683
    -8.3960  -8.3569  -8.3340  -5.0061  -3.7947  -2.8292   0.1003   1.7561
     2.1459   2.3469

     occupation numbers 
     1.0000   1.0000   1.0000   1.0000   1.0000   1.0000   1.0000   1.0000
     1.0000   1.0000   1.0000   1.0000   1.0000   1.0000   0.0000   0.0000
     0.0000   0.0000

          k = 0.0000 0.2500 0.0000 (  7881 PWs)   bands (ev):

  -127.6616 -81.8534 -81.8444 -81.7901 -20.6305  -9.8051  -9.0681  -8.6207
    -8.4502  -8.3448  -8.3376  -5.3437  -3.7425  -2.7291   0.7050   2.4784
     2.8328   3.0463

     occupation numbers 
     1.0000   1.0000   1.0000   1.0000   1.0000   1.0000   1.0000   1.0000
     1.0000   1.0000   1.0000   1.0000   1.0000   1.0001   0.0000   0.0000
     0.0000   0.0000

          k = 0.0000 0.3333 0.0000 (  7882 PWs)   bands (ev):

  -127.6613 -81.8577 -81.8441 -81.7897 -20.4530  -9.5102  -9.0727  -8.5342
    -8.5298  -8.3275  -8.3003  -6.0112  -3.0422  -2.6293   1.3369   3.2819
     3.5691   3.7745

     occupation numbers 
     1.0000   1.0000   1.0000   1.0000   1.0000   1.0000   1.0000   1.0000
     1.0000   1.0000   1.0000   1.0000   1.0000   1.0017   0.0000   0.0000
     0.0000   0.0000

          k = 0.0000 0.4167 0.0000 (  7900 PWs)   bands (ev):

  -127.6611 -81.8608 -81.8439 -81.7895 -20.3167  -9.3218  -9.1377  -8.5888
    -8.4691  -8.3128  -8.1309  -6.5363  -2.5565  -2.0454   0.8654   3.0092
     4.6209   4.8866

     occupation numbers 
     1.0000   1.0000   1.0000   1.0000   1.0000   1.0000   1.0000   1.0000
     1.0000   1.0000   1.0000   1.0000   1.0071   0.4391   0.0000   0.0000
     0.0000   0.0000

          k = 0.0000-0.5000 0.0000 (  7920 PWs)   bands (ev):

  -127.6611 -81.8620 -81.8438 -81.7894 -20.2653  -9.2319  -9.1984  -8.6103
    -8.4706  -8.3072  -7.9991  -6.7474  -2.5298  -1.1374  -0.1975   3.5743
     4.6932   5.9343

     occupation numbers 
     1.0000   1.0000   1.0000   1.0000   1.0000   1.0000   1.0000   1.0000
     1.0000   1.0000   1.0000   1.0000   1.0112   0.0000   0.0000   0.0000
     0.0000   0.0000

          k = 0.0833 0.0833 0.0000 (  7870 PWs)   bands (ev):

  -127.6620 -81.8460 -81.8460 -81.7906 -20.8755 -10.2801  -9.1873  -8.4904
    -8.4342  -8.3541  -8.3038  -5.0868  -3.2661  -3.1072  -0.1699   1.4588
     1.8597   2.0664

     occupation numbers 
     1.0000   1.0000   1.0000   1.0000   1.0000   1.0000   1.0000   1.0000
     1.0000   1.0000   1.0000   1.0000   1.0000   1.0000   0.0000   0.0000
     0.0000   0.0000

          k = 0.0833 0.1667 0.0000 (  7854 PWs)   bands (ev):

  -127.6618 -81.8491 -81.8458 -81.7903 -20.7584 -10.0511  -9.1124  -8.5637
    -8.4491  -8.3700  -8.3105  -4.9697  -3.7134  -3.0644   0.2449   1.9059
     2.2897   2.4880

     occupation numbers 
     1.0000   1.0000   1.0000   1.0000   1.0000   1.0000   1.0000   1.0000
     1.0000   1.0000   1.0000   1.0000   1.0000   1.0000   0.0000   0.0000
     0.0000   0.0000

          k = 0.0833 0.2500 0.0000 (  7876 PWs)   bands (ev):

  -127.6616 -81.8533 -81.8455 -81.7900 -20.5916  -9.7457  -9.0344  -8.6191
    -8.4902  -8.3941  -8.2713  -5.3172  -3.6685  -2.9128   0.8432   2.6252
     2.9693   3.1886

     occupation numbers 
     1.0000   1.0000   1.0000   1.0000   1.0000   1.0000   1.0000   1.0000
     1.0000   1.0000   1.0000   1.0000   1.0000   1.0000   0.0000   0.0000
     0.0000   0.0000

          k = 0.0833 0.3333 0.0000 (  7864 PWs)   bands (ev):

  -127.6613 -81.8576 -81.8452 -81.7896 -20.4161  -9.4706  -9.0397  -8.6308
    -8.4909  -8.3838  -8.1870  -5.9573  -3.1483  -2.6345   1.4847   3.4123
     3.6864   3.9113

     occupation numbers 
     1.0000   1.0000   1.0000   1.0000   1.0000   1.0000   1.0000   1.0000
     1.0000   1.0000   1.0000   1.0000   1.0000   1.0015   0.0000   0.0000
     0.0000   0.0000

          k = 0.0833 0.4167 0.0000 (  7894 PWs)   bands (ev):

  -127.6611 -81.8607 -81.8450 -81.7894 -20.2814  -9.2933  -9.1032  -8.6822
    -8.4732  -8.3479  -7.9909  -6.4655  -2.8624  -1.8587   1.0323   3.1014
     4.7530   5.0225

     occupation numbers 
     1.0000   1.0000   1.0000   1.0000   1.0000   1.0000   1.0000   1.0000
     1.0000   1.0000   1.0000   1.0000   1.0000   0.0447   0.0000   0.0000
     0.0000   0.0000

          k = 0.0833-0.5000 0.0000 (  7904 PWs)   bands (ev):

  -127.6610 -81.8619 -81.8449 -81.7893 -20.2306  -9.2126  -9.1558  -8.7056
    -8.4811  -8.3336  -7.8590  -6.6714  -2.8016  -1.0239   0.0035   3.6647
     4.8346   6.0025

     occupation numbers 
     1.0000   1.0000   1.0000   1.0000   1.0000   1.0000   1.0000   1.0000
     1.0000   1.0000   1.0000   1.0000   1.0000   0.0000   0.0000   0.0000
     0.0000   0.0000

          k = 0.1667 0.1667 0.0000 (  7864 PWs)   bands (ev):

  -127.6616 -81.8489 -81.8488 -81.7901 -20.6448  -9.8510  -9.0265  -8.5622
    -8.5198  -8.4505  -8.2446  -4.9601  -3.5704  -3.4307   0.6397   2.3447
     2.7059   2.9115

     occupation numbers 
     1.0000   1.0000   1.0000   1.0000   1.0000   1.0000   1.0000   1.0000
     1.0000   1.0000   1.0000   1.0000   1.0000   1.0000   0.0000   0.0000
     0.0000   0.0000

          k = 0.1667 0.2500 0.0000 (  7859 PWs)   bands (ev):

  -127.6613 -81.8531 -81.8486 -81.7897 -20.4831  -9.6054  -8.9316  -8.6227
    -8.5357  -8.5002  -8.1496  -5.2664  -3.7575  -3.0150   1.2313   3.0582
     3.3660   3.6155

     occupation numbers 
     1.0000   1.0000   1.0000   1.0000   1.0000   1.0000   1.0000   1.0000
     1.0000   1.0000   1.0000   1.0000   1.0000   1.0000   0.0000   0.0000
     0.0000   0.0000

          k = 0.1667 0.3333 0.0000 (  7846 PWs)   bands (ev):

  -127.6611 -81.8573 -81.8482 -81.7894 -20.3132  -9.4115  -8.9192  -8.7170
    -8.5207  -8.4475  -7.9761  -5.8143  -3.6441  -2.3605   1.8996   3.7598
     4.0549   4.3075

     occupation numbers 
     1.0000   1.0000   1.0000   1.0000   1.0000   1.0000   1.0000   1.0000
     1.0000   1.0000   1.0000   1.0000   1.0000   1.0742   0.0000   0.0000
     0.0000   0.0000

          k = 0.1667 0.4167 0.0000 (  7870 PWs)   bands (ev):

  -127.6609 -81.8604 -81.8480 -81.7892 -20.1830  -9.3073  -8.9452  -8.7991
    -8.5361  -8.3737  -7.7224  -6.2726  -3.4927  -1.4682   1.4810   3.3697
     5.1353   5.4237

     occupation numbers 
     1.0000   1.0000   1.0000   1.0000   1.0000   1.0000   1.0000   1.0000
     1.0000   1.0000   1.0000   1.0000   1.0000   0.0000   0.0000   0.0000
     0.0000   0.0000

          k = 0.1667-0.5000 0.0000 (  7874 PWs)   bands (ev):

  -127.6608 -81.8616 -81.8479 -81.7891 -20.1340  -9.2772  -8.9530  -8.8351
    -8.5459  -8.3514  -7.5815  -6.4618  -3.4313  -0.6872   0.4880   3.9277
     5.2522   6.1508

     occupation numbers 
     1.0000   1.0000   1.0000   1.0000   1.0000   1.0000   1.0000   1.0000
     1.0000   1.0000   1.0000   1.0000   1.0000   0.0000   0.0000   0.0000
     0.0000   0.0000

          k = 0.2500 0.2500 0.0000 (  7842 PWs)   bands (ev):

  -127.6611 -81.8528 -81.8526 -81.7894 -20.3290  -9.4772  -8.7952  -8.6450
    -8.6204  -8.5207  -7.9701  -5.3188  -4.1676  -2.5497   1.8264   3.7636
     3.9973   4.3252

     occupation numbers 
     1.0000   1.0000   1.0000   1.0000   1.0000   1.0000   1.0000   1.0000
     1.0000   1.0000   1.0000   1.0000   1.0000   1.0080   0.0000   0.0000
     0.0000   0.0000

          k = 0.2500 0.3333 0.0000 (  7834 PWs)   bands (ev):

  -127.6608 -81.8570 -81.8524 -81.7891 -20.1674  -9.4163  -8.7944  -8.7225
    -8.5949  -8.4374  -7.7090  -5.6341  -4.2843  -1.8222   2.5349   4.1967
     4.6991   4.9152

     occupation numbers 
     1.0000   1.0000   1.0000   1.0000   1.0000   1.0000   1.0000   1.0000
     1.0000   1.0000   1.0000   1.0000   1.0000   0.0237   0.0000   0.0000
     0.0000   0.0000

          k = 0.2500 0.4167 0.0000 (  7841 PWs)   bands (ev):

  -127.6606 -81.8601 -81.8522 -81.7888 -20.0437  -9.4021  -8.8668  -8.7537
    -8.5804  -8.3502  -7.4228  -5.9966  -4.2030  -0.8987   2.1291   3.7873
     5.6755   6.0502

     occupation numbers 
     1.0000   1.0000   1.0000   1.0000   1.0000   1.0000   1.0000   1.0000
     1.0000   1.0000   1.0000   1.0000   1.0000   0.0000   0.0000   0.0000
     0.0000   0.0000

          k = 0.2500-0.5000 0.0000 (  7850 PWs)   bands (ev):

  -127.6605 -81.8612 -81.8521 -81.7887 -19.9972  -9.4016  -8.8948  -8.7686
    -8.5770  -8.3207  -7.2843  -6.1540  -4.1520  -0.1357   1.1360   4.3351
     5.8511   6.2497

     occupation numbers 
     1.0000   1.0000   1.0000   1.0000   1.0000   1.0000   1.0000   1.0000
     1.0000   1.0000   1.0000   1.0000   1.0000   0.0000   0.0000   0.0000
     0.0000   0.0000

          k = 0.3333 0.3333 0.0000 (  7832 PWs)   bands (ev):

  -127.6605 -81.8567 -81.8565 -81.7887 -20.0147  -9.4656  -8.8112  -8.8031
    -8.4239  -8.4182  -7.4053  -5.5421  -4.7482  -1.0739   3.3238   4.2771
     5.1692   5.7117

     occupation numbers 
     1.0000   1.0000   1.0000   1.0000   1.0000   1.0000   1.0000   1.0000
     1.0000   1.0000   1.0000   1.0000   1.0000   0.0000   0.0000   0.0000
     0.0000   0.0000

          k = 0.3333 0.4167 0.0000 (  7838 PWs)   bands (ev):

  -127.6603 -81.8597 -81.8564 -81.7885 -19.8981  -9.5125  -8.8898  -8.8298
    -8.4047  -8.2797  -7.1342  -5.6884  -4.8197  -0.1396   2.8772   4.2974
     5.3812   6.5255

     occupation numbers 
     1.0000   1.0000   1.0000   1.0000   1.0000   1.0000   1.0000   1.0000
     1.0000   1.0000   1.0000   1.0000   1.0000   0.0000   0.0000   0.0000
     0.0000   0.0000

          k = 0.3333-0.5000 0.0000 (  7856 PWs)   bands (ev):

  -127.6602 -81.8608 -81.8563 -81.7884 -19.8543  -9.5307  -8.9196  -8.8413
    -8.3992  -8.2315  -7.0180  -5.7970  -4.7830   0.6223   1.8844   4.8187
     5.4635   6.8676

     occupation numbers 
     1.0000   1.0000   1.0000   1.0000   1.0000   1.0000   1.0000   1.0000
     1.0000   1.0000   1.0000   1.0000   1.0000   0.0000   0.0000   0.0000
     0.0000   0.0000

          k = 0.4167 0.4167 0.0000 (  7842 PWs)   bands (ev):

  -127.6601 -81.8595 -81.8594 -81.7883 -19.7871  -9.5917  -8.9103  -8.9102
    -8.3430  -8.1385  -6.9119  -5.4693  -5.1880   0.7985   3.2858   4.1753
     4.9018   6.6643

     occupation numbers 
     1.0000   1.0000   1.0000   1.0000   1.0000   1.0000   1.0000   1.0000
     1.0000   1.0000   1.0000   1.0000   1.0000   0.0000   0.0000   0.0000
     0.0000   0.0000

          k = 0.4167-0.5000 0.0000 (  7830 PWs)   bands (ev):

  -127.6600 -81.8605 -81.8593 -81.7882 -19.7454  -9.6199  -8.9396  -8.9202
    -8.3309  -8.0783  -6.8248  -5.4870  -5.2086   1.5829   2.6020   4.1574
     5.2164   6.5983

     occupation numbers 
     1.0000   1.0000   1.0000   1.0000   1.0000   1.0000   1.0000   1.0000
     1.0000   1.0000   1.0000   1.0000   1.0000   0.0000   0.0000   0.0000
     0.0000   0.0000

          k =-0.5000-0.5000 0.0000 (  7904 PWs)   bands (ev):

  -127.6599 -81.8605 -81.8605 -81.7882 -19.7046  -9.6511  -8.9491  -8.9491
    -8.3166  -8.0123  -6.7514  -5.3599  -5.3599   2.6034   2.9449   2.9449
     5.3391   6.4287

     occupation numbers 
     1.0000   1.0000   1.0000   1.0000   1.0000   1.0000   1.0000   1.0000
     1.0000   1.0000   1.0000   1.0000   1.0000   0.0000   0.0000   0.0000
     0.0000   0.0000

     the Fermi energy is    -2.0344 ev

!    total energy              =    -504.31555553 Ry
     estimated scf accuracy    <          1.7E-09 Ry
     smearing contrib. (-TS)   =       0.00004366 Ry
     internal energy E=F+TS    =    -504.31559918 Ry

     The total energy is F=E-TS. E is the sum of the following terms:
     one-electron contribution =   -2833.55903790 Ry
     hartree contribution      =    1415.88279866 Ry
     xc contribution           =     -50.19851560 Ry
     ewald contribution        =     973.08273112 Ry
     one-center paw contrib.   =      -9.52357546 Ry
      -> PAW hartree energy AE =      26.19762717 Ry
      -> PAW hartree energy PS =     -26.07765600 Ry
      -> PAW xc energy AE      =     -16.68602002 Ry
      -> PAW xc energy PS      =       7.04247339 Ry
      -> total E_H with PAW    =    1416.00276984 Ry
      -> total E_XC with PAW   =     -59.84206224 Ry

     convergence has been achieved in  12 iterations

     negative rho (up, down):  1.455E-04 0.000E+00

     Forces acting on atoms (cartesian axes, Ry/au):

     atom    1 type  2   force =     0.00000000    0.00000000    0.07582845
     atom    2 type  1   force =     0.00000000    0.00000000    0.05698766
     atom    3 type  3   force =     0.00000000    0.00000000   -0.13281610
     The non-local contrib.  to forces
     atom    1 type  2   force =     0.00000000    0.00000000   -0.21804416
     atom    2 type  1   force =     0.00000000    0.00000000    1.30643913
     atom    3 type  3   force =     0.00000000    0.00000000   -0.07010512
     The ionic contribution  to forces
     atom    1 type  2   force =    -0.00000000   -0.00000000  -53.00993016
     atom    2 type  1   force =     0.00000000    0.00000000   41.02036818
     atom    3 type  3   force =    -0.00000000   -0.00000000   11.98956198
     The local contribution  to forces
     atom    1 type  2   force =     0.00000000   -0.00000000   53.30425557
     atom    2 type  1   force =     0.00000000    0.00000000  -42.25487296
     atom    3 type  3   force =     0.00000000    0.00000000  -12.05240207
     The core correction contribution to forces
     atom    1 type  2   force =     0.00000000    0.00000000    0.00000000
     atom    2 type  1   force =     0.00000000   -0.00000000   -0.01500196
     atom    3 type  3   force =     0.00000000    0.00000000    0.00000000
     The Hubbard contrib.    to forces
     atom    1 type  2   force =     0.00000000    0.00000000    0.00000000
     atom    2 type  1   force =     0.00000000    0.00000000    0.00000000
     atom    3 type  3   force =     0.00000000    0.00000000    0.00000000
     The SCF correction term to forces
     atom    1 type  2   force =     0.00000000    0.00000000   -0.00057656
     atom    2 type  1   force =    -0.00000000   -0.00000000   -0.00006850
     atom    3 type  3   force =    -0.00000000   -0.00000000    0.00000534

     Total force =     0.163210     Total SCF correction =     0.000581


     Computing stress (Cartesian axis) and pressure


     negative rho (up, down):  1.455E-04 0.000E+00
          total   stress  (Ry/bohr**3)                   (kbar)     P=      -13.03
   0.00004599   0.00000000   0.00000000            6.77        0.00        0.00
   0.00000000   0.00004599   0.00000000            0.00        6.77        0.00
   0.00000000   0.00000000  -0.00035768            0.00        0.00      -52.62

     kinetic stress (kbar)   4385.85      0.00      0.00
                                0.00   4385.85      0.00
                                0.00      0.00   4157.41

     local   stress (kbar)-274637.39     -0.00      0.00
                               -0.00-274637.39     -0.00
                                0.00     -0.00 274957.77

     nonloc. stress (kbar)    -87.75      0.00      0.00
                                0.00    -87.75      0.00
                                0.00      0.00    -88.70

     hartree stress (kbar) 143451.24      0.00     -0.00
                                0.00 143451.24     -0.00
                               -0.00     -0.00-128667.36

     exc-cor stress (kbar)  -1743.10     -0.00     -0.00
                               -0.00  -1743.10      0.00
                               -0.00      0.00  -1742.49

     corecor stress (kbar)    -47.70      0.00     -0.00
                                0.00    -47.70     -0.00
                               -0.00     -0.00    -47.03

     ewald   stress (kbar) 128685.62      0.00      0.00
                                0.00 128685.62      0.00
                                0.00      0.00-148622.21

     hubbard stress (kbar)      0.00      0.00      0.00
                                0.00      0.00      0.00
                                0.00      0.00      0.00

     DFT-D   stress (kbar)      0.00      0.00      0.00
                                0.00      0.00      0.00
                                0.00      0.00      0.00

     XDM     stress (kbar)      0.00      0.00      0.00
                                0.00      0.00      0.00
                                0.00      0.00      0.00

     dft-nl  stress (kbar)      0.00      0.00      0.00
                                0.00      0.00      0.00
                                0.00      0.00      0.00

     TS-vdW  stress (kbar)      0.00      0.00      0.00
                                0.00      0.00      0.00
                                0.00      0.00      0.00

     MDB     stress (kbar)      0.00      0.00      0.00
                                0.00      0.00      0.00
                                0.00      0.00      0.00

     3D-RISM stress (kbar)      0.00      0.00      0.00
                                0.00      0.00      0.00
                                0.00      0.00      0.00


     Writing all to output data dir ./temp_cubic/aiida.save/ :
     XML data file, charge density, pseudopotentials, collected wavefunctions

     init_run     :     79.39s CPU      4.23s WALL (       1 calls)
     electrons    :   2130.11s CPU    110.01s WALL (       1 calls)
     forces       :     23.08s CPU      1.45s WALL (       1 calls)
     stress       :     30.30s CPU      3.93s WALL (       1 calls)

     Called by init_run:
     wfcinit      :     73.96s CPU      3.32s WALL (       1 calls)
     wfcinit:atom :      0.77s CPU      0.05s WALL (      28 calls)
     wfcinit:wfcr :     70.04s CPU      3.06s WALL (      28 calls)
     potinit      :      1.96s CPU      0.15s WALL (       1 calls)
     hinit0       :      1.56s CPU      0.29s WALL (       1 calls)

     Called by electrons:
     c_bands      :   1787.37s CPU     86.20s WALL (      12 calls)
     sum_band     :    301.14s CPU     17.62s WALL (      12 calls)
     v_of_rho     :     11.97s CPU      0.98s WALL (      13 calls)
     v_h          :      1.95s CPU      0.14s WALL (      13 calls)
     v_xc         :     11.70s CPU      0.97s WALL (      15 calls)
     newd         :     16.99s CPU      4.90s WALL (      13 calls)
     PAW_pot      :      5.63s CPU      0.24s WALL (      13 calls)
     mix_rho      :      4.63s CPU      0.25s WALL (      12 calls)

     Called by c_bands:
     init_us_2    :     19.76s CPU      1.33s WALL (     756 calls)
     cegterg      :   1756.97s CPU     84.44s WALL (     336 calls)

     Called by sum_band:
     sum_band:wei :      0.01s CPU      0.00s WALL (      12 calls)
     sum_band:loo :    290.14s CPU     12.17s WALL (      12 calls)
     sum_band:buf :      1.28s CPU      0.09s WALL (     336 calls)
     sum_band:ini :      8.10s CPU      0.49s WALL (     336 calls)
     sum_band:cal :     54.64s CPU      1.99s WALL (     336 calls)
     sum_band:bec :      5.94s CPU      0.25s WALL (     336 calls)
     addusdens    :      9.83s CPU      5.21s WALL (      12 calls)
                                        0.00s GPU  (      12 calls)
     addusd:skk   :      0.13s CPU      0.01s WALL (      36 calls)
                                        0.00s GPU  (      36 calls)

     Called by *egterg:
     cdiaghg      :      6.32s CPU      0.39s WALL (    1468 calls)
     cegterg:over :    100.44s CPU      5.37s WALL (    1132 calls)
     cegterg:upda :     49.25s CPU      4.24s WALL (    1132 calls)
     cegterg:last :     50.49s CPU      6.68s WALL (     663 calls)
     h_psi        :   1435.54s CPU     61.40s WALL (    1496 calls)
     s_psi        :     96.08s CPU      4.83s WALL (    1496 calls)
     g_psi        :      9.45s CPU      0.54s WALL (    1132 calls)

     Called by h_psi:
     h_psi:calbec :    134.45s CPU      4.96s WALL (    1496 calls)
     vloc_psi     :   1178.17s CPU     50.83s WALL (    1496 calls)
     add_vuspsi   :    107.16s CPU      4.80s WALL (    1496 calls)

     General routines
     calbec       :    208.33s CPU      7.73s WALL (    1972 calls)
     fft          :     12.33s CPU      0.96s WALL (     192 calls)
     ffts         :      1.11s CPU      0.05s WALL (      25 calls)
     fftw         :    831.15s CPU     35.63s WALL (   35768 calls)
     interpolate  :      3.00s CPU      0.12s WALL (      13 calls)

     Parallel routines

     PAW routines
     PAW_pot      :      5.63s CPU      0.24s WALL (      13 calls)
     PAW_symme    :      0.00s CPU      0.00s WALL (      25 calls)

     PWSCF        :  37m53.16s CPU   2m 0.90s WALL


   This run was terminated on:  20:59:50  14Jun2024            

=------------------------------------------------------------------------------=
   JOB DONE.
=------------------------------------------------------------------------------=
