
     Program PWSCF v.7.3.1 starts on 14Jun2024 at 20:35: 7 

     This program is part of the open-source Quantum ESPRESSO suite
     for quantum simulation of materials; please cite
         "P. Giannozzi et al., J. Phys.:Condens. Matter 21 395502 (2009);
         "P. Giannozzi et al., J. Phys.:Condens. Matter 29 465901 (2017);
         "P. Giannozzi et al., J. Chem. Phys. 152 154105 (2020);
          URL http://www.quantum-espresso.org", 
     in publications or presentations arising from this work. More details at
     http://www.quantum-espresso.org/quote

     Parallel version (MPI & OpenMP), running on      24 processor cores
     Number of MPI processes:                 1
     Threads/MPI process:                    24

     MPI processes distributed on     1 nodes
     5459 MiB available memory on the printing compute node when the environment starts

     Waiting for input...
     Reading input from standard input

     Current dimensions of program PWSCF are:
     Max number of different atomic species (ntypx) = 10
     Max number of k-points (npk) =  40000
     Max angular momentum in pseudopotentials (lmaxx) =  4
     file O.pbe-n-kjpaw_psl.0.1.UPF: wavefunction(s)  2P renormalized
     Message from routine setup:
     using ibrav=0 with symmetry is DISCOURAGED, use correct ibrav instead

     Subspace diagonalization in iterative solution of the eigenvalue problem:
     a serial algorithm will be used


     G-vector sticks info
     --------------------
     sticks:   dense  smooth     PW     G-vecs:    dense   smooth      PW
     Sum         829     421    137               177743    63081   11257

     Using Slab Decomposition



     bravais-lattice index     =            0
     lattice parameter (alat)  =       5.0869  a.u.
     unit-cell volume          =    1316.2915 (a.u.)^3
     number of atoms/cell      =            3
     number of atomic types    =            3
     number of electrons       =        27.00
     number of Kohn-Sham states=           18
     kinetic-energy cutoff     =      50.0000  Ry
     charge density cutoff     =     400.0000  Ry
     scf convergence threshold =      1.0E-08
     mixing beta               =       0.4000
     number of iterations used =            8  plain     mixing
     Exchange-correlation= PBE
                           (   1   4   3   4   0   0   0)

     celldm(1)=   5.086871  celldm(2)=   0.000000  celldm(3)=   0.000000
     celldm(4)=   0.000000  celldm(5)=   0.000000  celldm(6)=   0.000000

     crystal axes: (cart. coord. in units of alat)
               a(1) = (   1.000000   0.000000   0.000000 )  
               a(2) = (   0.000000   1.000000   0.000000 )  
               a(3) = (   0.000000   0.000000  10.000000 )  

     reciprocal axes: (cart. coord. in units 2 pi/alat)
               b(1) = (  1.000000  0.000000  0.000000 )  
               b(2) = (  0.000000  1.000000  0.000000 )  
               b(3) = (  0.000000  0.000000  0.100000 )  


     PseudoPot. # 1 for O  read from file:
     ../SSSP_1.3.0_PBE_efficiency/O.pbe-n-kjpaw_psl.0.1.UPF
     MD5 check sum: 0234752ac141de4415c5fc33072bef88
     Pseudo is Projector augmented-wave + core cor, Zval =  6.0
     Generated using "atomic" code by A. Dal Corso  v.5.0.99 svn rev. 10869
     Shape of augmentation charge: BESSEL
     Using radial grid of 1095 points,  4 beta functions with: 
                l(1) =   0
                l(2) =   0
                l(3) =   1
                l(4) =   1
     Q(r) pseudized with 0 coefficients 


     PseudoPot. # 2 for Zn read from file:
     ../SSSP_1.3.0_PBE_efficiency/Zn_pbe_v1.uspp.F.UPF
     MD5 check sum: df62231357ef9e81f77b2b3087fa5675
     Pseudo is Ultrasoft, Zval = 20.0
     Generated by new atomic code, or converted to UPF format
     Using radial grid of  943 points,  6 beta functions with: 
                l(1) =   0
                l(2) =   0
                l(3) =   1
                l(4) =   1
                l(5) =   2
                l(6) =   2
     Q(r) pseudized with  8 coefficients,  rinner =    1.100   1.100   1.100
                                                       1.100   1.100

     PseudoPot. # 3 for H  read from file:
     ../SSSP_1.3.0_PBE_efficiency/H.pbe-rrkjus_psl.1.0.0.UPF
     MD5 check sum: f52b6d4d1c606e5624b1dc7b2218f220
     Pseudo is Ultrasoft, Zval =  1.0
     Generated using "atomic" code by A. Dal Corso  v.5.1
     Using radial grid of  929 points,  2 beta functions with: 
                l(1) =   0
                l(2) =   0
     Q(r) pseudized with 0 coefficients 


     atomic species   valence    mass     pseudopotential
     O                 6.00    15.99940     O ( 1.00)
     Zn               20.00    65.38000     Zn( 1.00)
     H                 1.00     1.00794     H ( 1.00)

      8 Sym. Ops. (no inversion) found


                                    s                        frac. trans.

      isym =  1     identity                                     

 cryst.   s( 1) = (     1          0          0      )
                  (     0          1          0      )
                  (     0          0          1      )

 cart.    s( 1) = (  1.0000000  0.0000000  0.0000000 )
                  (  0.0000000  1.0000000  0.0000000 )
                  (  0.0000000  0.0000000  1.0000000 )


      isym =  2     180 deg rotation - cart. axis [0,0,1]        

 cryst.   s( 2) = (    -1          0          0      )
                  (     0         -1          0      )
                  (     0          0          1      )

 cart.    s( 2) = ( -1.0000000  0.0000000  0.0000000 )
                  (  0.0000000 -1.0000000  0.0000000 )
                  (  0.0000000  0.0000000  1.0000000 )


      isym =  3      90 deg rotation - cart. axis [0,0,-1]       

 cryst.   s( 3) = (     0         -1          0      )
                  (     1          0          0      )
                  (     0          0          1      )

 cart.    s( 3) = (  0.0000000  1.0000000  0.0000000 )
                  ( -1.0000000  0.0000000  0.0000000 )
                  (  0.0000000  0.0000000  1.0000000 )


      isym =  4      90 deg rotation - cart. axis [0,0,1]        

 cryst.   s( 4) = (     0          1          0      )
                  (    -1          0          0      )
                  (     0          0          1      )

 cart.    s( 4) = (  0.0000000 -1.0000000  0.0000000 )
                  (  1.0000000  0.0000000  0.0000000 )
                  (  0.0000000  0.0000000  1.0000000 )


      isym =  5     inv. 180 deg rotation - cart. axis [0,1,0]   

 cryst.   s( 5) = (     1          0          0      )
                  (     0         -1          0      )
                  (     0          0          1      )

 cart.    s( 5) = (  1.0000000  0.0000000  0.0000000 )
                  (  0.0000000 -1.0000000  0.0000000 )
                  (  0.0000000  0.0000000  1.0000000 )


      isym =  6     inv. 180 deg rotation - cart. axis [1,0,0]   

 cryst.   s( 6) = (    -1          0          0      )
                  (     0          1          0      )
                  (     0          0          1      )

 cart.    s( 6) = ( -1.0000000  0.0000000  0.0000000 )
                  (  0.0000000  1.0000000  0.0000000 )
                  (  0.0000000  0.0000000  1.0000000 )


      isym =  7     inv. 180 deg rotation - cart. axis [1,1,0]   

 cryst.   s( 7) = (     0         -1          0      )
                  (    -1          0          0      )
                  (     0          0          1      )

 cart.    s( 7) = (  0.0000000 -1.0000000  0.0000000 )
                  ( -1.0000000  0.0000000  0.0000000 )
                  (  0.0000000  0.0000000  1.0000000 )


      isym =  8     inv. 180 deg rotation - cart. axis [1,-1,0]  

 cryst.   s( 8) = (     0          1          0      )
                  (     1          0          0      )
                  (     0          0          1      )

 cart.    s( 8) = (  0.0000000  1.0000000  0.0000000 )
                  (  1.0000000  0.0000000  0.0000000 )
                  (  0.0000000  0.0000000  1.0000000 )


   Cartesian axes

     site n.     atom                  positions (alat units)
         1        Zn     tau(   1) = (   0.0000000   0.0000000   0.0000000  )
         2        O      tau(   2) = (   0.5000000   0.5000000   0.5000000  )
         3        H      tau(   3) = (   0.5000000   0.5000000   1.0000000  )

   Crystallographic axes

     site n.     atom                  positions (cryst. coord.)
         1        Zn     tau(   1) = (  0.0000000  0.0000000  0.0000000  )
         2        O      tau(   2) = (  0.5000000  0.5000000  0.0500000  )
         3        H      tau(   3) = (  0.5000000  0.5000000  0.1000000  )

     number of k points=    28  Marzari-Vanderbilt smearing, width (Ry)=  0.0147
                       cart. coord. in units 2pi/alat
        k(    1) = (   0.0000000   0.0000000   0.0000000), wk =   0.0138889
        k(    2) = (   0.0000000   0.0833333   0.0000000), wk =   0.0555556
        k(    3) = (   0.0000000   0.1666667   0.0000000), wk =   0.0555556
        k(    4) = (   0.0000000   0.2500000   0.0000000), wk =   0.0555556
        k(    5) = (   0.0000000   0.3333333   0.0000000), wk =   0.0555556
        k(    6) = (   0.0000000   0.4166667   0.0000000), wk =   0.0555556
        k(    7) = (   0.0000000  -0.5000000   0.0000000), wk =   0.0277778
        k(    8) = (   0.0833333   0.0833333   0.0000000), wk =   0.0555556
        k(    9) = (   0.0833333   0.1666667   0.0000000), wk =   0.1111111
        k(   10) = (   0.0833333   0.2500000   0.0000000), wk =   0.1111111
        k(   11) = (   0.0833333   0.3333333   0.0000000), wk =   0.1111111
        k(   12) = (   0.0833333   0.4166667   0.0000000), wk =   0.1111111
        k(   13) = (   0.0833333  -0.5000000   0.0000000), wk =   0.0555556
        k(   14) = (   0.1666667   0.1666667   0.0000000), wk =   0.0555556
        k(   15) = (   0.1666667   0.2500000   0.0000000), wk =   0.1111111
        k(   16) = (   0.1666667   0.3333333   0.0000000), wk =   0.1111111
        k(   17) = (   0.1666667   0.4166667   0.0000000), wk =   0.1111111
        k(   18) = (   0.1666667  -0.5000000   0.0000000), wk =   0.0555556
        k(   19) = (   0.2500000   0.2500000   0.0000000), wk =   0.0555556
        k(   20) = (   0.2500000   0.3333333   0.0000000), wk =   0.1111111
        k(   21) = (   0.2500000   0.4166667   0.0000000), wk =   0.1111111
        k(   22) = (   0.2500000  -0.5000000   0.0000000), wk =   0.0555556
        k(   23) = (   0.3333333   0.3333333   0.0000000), wk =   0.0555556
        k(   24) = (   0.3333333   0.4166667   0.0000000), wk =   0.1111111
        k(   25) = (   0.3333333  -0.5000000   0.0000000), wk =   0.0555556
        k(   26) = (   0.4166667   0.4166667   0.0000000), wk =   0.0555556
        k(   27) = (   0.4166667  -0.5000000   0.0000000), wk =   0.0555556
        k(   28) = (  -0.5000000  -0.5000000   0.0000000), wk =   0.0138889

                       cryst. coord.
        k(    1) = (   0.0000000   0.0000000   0.0000000), wk =   0.0138889
        k(    2) = (   0.0000000   0.0833333   0.0000000), wk =   0.0555556
        k(    3) = (   0.0000000   0.1666667   0.0000000), wk =   0.0555556
        k(    4) = (   0.0000000   0.2500000   0.0000000), wk =   0.0555556
        k(    5) = (   0.0000000   0.3333333   0.0000000), wk =   0.0555556
        k(    6) = (   0.0000000   0.4166667   0.0000000), wk =   0.0555556
        k(    7) = (   0.0000000  -0.5000000   0.0000000), wk =   0.0277778
        k(    8) = (   0.0833333   0.0833333   0.0000000), wk =   0.0555556
        k(    9) = (   0.0833333   0.1666667   0.0000000), wk =   0.1111111
        k(   10) = (   0.0833333   0.2500000   0.0000000), wk =   0.1111111
        k(   11) = (   0.0833333   0.3333333   0.0000000), wk =   0.1111111
        k(   12) = (   0.0833333   0.4166667   0.0000000), wk =   0.1111111
        k(   13) = (   0.0833333  -0.5000000   0.0000000), wk =   0.0555556
        k(   14) = (   0.1666667   0.1666667   0.0000000), wk =   0.0555556
        k(   15) = (   0.1666667   0.2500000   0.0000000), wk =   0.1111111
        k(   16) = (   0.1666667   0.3333333   0.0000000), wk =   0.1111111
        k(   17) = (   0.1666667   0.4166667   0.0000000), wk =   0.1111111
        k(   18) = (   0.1666667  -0.5000000   0.0000000), wk =   0.0555556
        k(   19) = (   0.2500000   0.2500000   0.0000000), wk =   0.0555556
        k(   20) = (   0.2500000   0.3333333   0.0000000), wk =   0.1111111
        k(   21) = (   0.2500000   0.4166667   0.0000000), wk =   0.1111111
        k(   22) = (   0.2500000  -0.5000000   0.0000000), wk =   0.0555556
        k(   23) = (   0.3333333   0.3333333   0.0000000), wk =   0.0555556
        k(   24) = (   0.3333333   0.4166667   0.0000000), wk =   0.1111111
        k(   25) = (   0.3333333  -0.5000000   0.0000000), wk =   0.0555556
        k(   26) = (   0.4166667   0.4166667   0.0000000), wk =   0.0555556
        k(   27) = (   0.4166667  -0.5000000   0.0000000), wk =   0.0555556
        k(   28) = (  -0.5000000  -0.5000000   0.0000000), wk =   0.0138889

     Dense  grid:   177743 G-vectors     FFT dimensions: (  36,  36, 324)

     Smooth grid:    63081 G-vectors     FFT dimensions: (  24,  24, 240)

     Dynamical RAM for                 wfc:       2.16 MB

     Dynamical RAM for     wfc (w. buffer):      62.60 MB

     Dynamical RAM for           str. fact:       8.14 MB

     Dynamical RAM for           local pot:       0.00 MB

     Dynamical RAM for          nlocal pot:       3.36 MB

     Dynamical RAM for                qrad:       4.82 MB

     Dynamical RAM for          rho,v,vnew:      17.75 MB

     Dynamical RAM for               rhoin:       5.92 MB

     Dynamical RAM for            rho*nmix:      43.39 MB

     Dynamical RAM for           G-vectors:      10.65 MB

     Dynamical RAM for          h,s,v(r/c):       0.06 MB

     Dynamical RAM for          <psi|beta>:       0.01 MB

     Dynamical RAM for                 psi:       4.32 MB

     Dynamical RAM for                hpsi:       4.32 MB

     Dynamical RAM for                spsi:       4.32 MB

     Dynamical RAM for      wfcinit/wfcrot:       4.32 MB

     Dynamical RAM for           addusdens:     507.17 MB

     Dynamical RAM for          addusforce:     508.53 MB

     Dynamical RAM for         addusstress:     545.14 MB

     Estimated static dynamical RAM per process >     140.09 MB

     Estimated max dynamical RAM per process >     728.62 MB

     Initial potential from superposition of free atoms

     starting charge      26.9998, renormalised to      27.0000

     negative rho (up, down):  1.359E-04 0.000E+00
     Starting wfcs are   18 randomized atomic wfcs
     Checking if some PAW data can be deallocated... 

     total cpu time spent up to now is        8.6 secs

     Self-consistent Calculation

     iteration #  1     ecut=    50.00 Ry     beta= 0.40
     Davidson diagonalization with overlap

---- Real-time Memory Report at c_bands before calling an iterative solver
           611 MiB given to the printing process from OS
             0 MiB allocation reported by mallinfo(arena+hblkhd)
          5307 MiB available memory on the node where the printing process lives
------------------
     ethr =  1.00E-02,  avg # of iterations =  6.2

     negative rho (up, down):  6.915E-05 0.000E+00

     total cpu time spent up to now is       24.1 secs

     total energy              =    -504.01181467 Ry
     estimated scf accuracy    <       0.62068469 Ry

     iteration #  2     ecut=    50.00 Ry     beta= 0.40
     Davidson diagonalization with overlap

---- Real-time Memory Report at c_bands before calling an iterative solver
           700 MiB given to the printing process from OS
             0 MiB allocation reported by mallinfo(arena+hblkhd)
          5288 MiB available memory on the node where the printing process lives
------------------
     ethr =  2.30E-03,  avg # of iterations =  4.3

     negative rho (up, down):  6.305E-05 0.000E+00

     total cpu time spent up to now is       34.5 secs

     total energy              =    -503.97953852 Ry
     estimated scf accuracy    <       1.28781733 Ry

     iteration #  3     ecut=    50.00 Ry     beta= 0.40
     Davidson diagonalization with overlap

---- Real-time Memory Report at c_bands before calling an iterative solver
           706 MiB given to the printing process from OS
             0 MiB allocation reported by mallinfo(arena+hblkhd)
          5278 MiB available memory on the node where the printing process lives
------------------
     ethr =  2.30E-03,  avg # of iterations =  2.6

     negative rho (up, down):  7.405E-05 0.000E+00

     total cpu time spent up to now is       43.6 secs

     total energy              =    -504.21806158 Ry
     estimated scf accuracy    <       0.22997556 Ry

     iteration #  4     ecut=    50.00 Ry     beta= 0.40
     Davidson diagonalization with overlap

---- Real-time Memory Report at c_bands before calling an iterative solver
           710 MiB given to the printing process from OS
             0 MiB allocation reported by mallinfo(arena+hblkhd)
          5275 MiB available memory on the node where the printing process lives
------------------
     ethr =  8.52E-04,  avg # of iterations =  1.2

     negative rho (up, down):  9.206E-05 0.000E+00

     total cpu time spent up to now is       51.4 secs

     total energy              =    -504.21940439 Ry
     estimated scf accuracy    <       0.05454714 Ry

     iteration #  5     ecut=    50.00 Ry     beta= 0.40
     Davidson diagonalization with overlap

---- Real-time Memory Report at c_bands before calling an iterative solver
           711 MiB given to the printing process from OS
             0 MiB allocation reported by mallinfo(arena+hblkhd)
          5277 MiB available memory on the node where the printing process lives
------------------
     ethr =  2.02E-04,  avg # of iterations =  3.5

     negative rho (up, down):  1.127E-04 0.000E+00

     total cpu time spent up to now is       60.8 secs

     total energy              =    -504.21816010 Ry
     estimated scf accuracy    <       0.00993737 Ry

     iteration #  6     ecut=    50.00 Ry     beta= 0.40
     Davidson diagonalization with overlap

---- Real-time Memory Report at c_bands before calling an iterative solver
           713 MiB given to the printing process from OS
             0 MiB allocation reported by mallinfo(arena+hblkhd)
          5274 MiB available memory on the node where the printing process lives
------------------
     ethr =  3.68E-05,  avg # of iterations =  5.2

     negative rho (up, down):  1.222E-04 0.000E+00

     total cpu time spent up to now is       71.0 secs

     total energy              =    -504.21969115 Ry
     estimated scf accuracy    <       0.00793745 Ry

     iteration #  7     ecut=    50.00 Ry     beta= 0.40
     Davidson diagonalization with overlap

---- Real-time Memory Report at c_bands before calling an iterative solver
           716 MiB given to the printing process from OS
             0 MiB allocation reported by mallinfo(arena+hblkhd)
          5269 MiB available memory on the node where the printing process lives
------------------
     ethr =  2.94E-05,  avg # of iterations =  1.0

     negative rho (up, down):  1.299E-04 0.000E+00

     total cpu time spent up to now is       78.8 secs

     total energy              =    -504.22049311 Ry
     estimated scf accuracy    <       0.00002297 Ry

     iteration #  8     ecut=    50.00 Ry     beta= 0.40
     Davidson diagonalization with overlap

---- Real-time Memory Report at c_bands before calling an iterative solver
           717 MiB given to the printing process from OS
             0 MiB allocation reported by mallinfo(arena+hblkhd)
          5272 MiB available memory on the node where the printing process lives
------------------
     ethr =  8.51E-08,  avg # of iterations =  4.2

     negative rho (up, down):  1.340E-04 0.000E+00

     total cpu time spent up to now is       88.7 secs

     total energy              =    -504.22048102 Ry
     estimated scf accuracy    <       0.00010694 Ry

     iteration #  9     ecut=    50.00 Ry     beta= 0.40
     Davidson diagonalization with overlap

---- Real-time Memory Report at c_bands before calling an iterative solver
           719 MiB given to the printing process from OS
             0 MiB allocation reported by mallinfo(arena+hblkhd)
          5265 MiB available memory on the node where the printing process lives
------------------
     ethr =  8.51E-08,  avg # of iterations =  2.2

     negative rho (up, down):  1.359E-04 0.000E+00

     total cpu time spent up to now is       99.3 secs

     total energy              =    -504.22049923 Ry
     estimated scf accuracy    <       0.00002872 Ry

     iteration # 10     ecut=    50.00 Ry     beta= 0.40
     Davidson diagonalization with overlap

---- Real-time Memory Report at c_bands before calling an iterative solver
           721 MiB given to the printing process from OS
             0 MiB allocation reported by mallinfo(arena+hblkhd)
          5265 MiB available memory on the node where the printing process lives
------------------
     ethr =  8.51E-08,  avg # of iterations =  1.5

     negative rho (up, down):  1.370E-04 0.000E+00

     total cpu time spent up to now is      107.4 secs

     total energy              =    -504.22050328 Ry
     estimated scf accuracy    <       0.00000062 Ry

     iteration # 11     ecut=    50.00 Ry     beta= 0.40
     Davidson diagonalization with overlap

---- Real-time Memory Report at c_bands before calling an iterative solver
           721 MiB given to the printing process from OS
             0 MiB allocation reported by mallinfo(arena+hblkhd)
          5263 MiB available memory on the node where the printing process lives
------------------
     ethr =  2.31E-09,  avg # of iterations =  1.5

     negative rho (up, down):  1.375E-04 0.000E+00

     total cpu time spent up to now is      115.0 secs

     total energy              =    -504.22050309 Ry
     estimated scf accuracy    <       0.00000087 Ry

     iteration # 12     ecut=    50.00 Ry     beta= 0.40
     Davidson diagonalization with overlap

---- Real-time Memory Report at c_bands before calling an iterative solver
           721 MiB given to the printing process from OS
             0 MiB allocation reported by mallinfo(arena+hblkhd)
          5261 MiB available memory on the node where the printing process lives
------------------
     ethr =  2.31E-09,  avg # of iterations =  1.4

     negative rho (up, down):  1.384E-04 0.000E+00

     total cpu time spent up to now is      124.1 secs

     End of self-consistent calculation

          k = 0.0000 0.0000 0.0000 (  7831 PWs)   bands (ev):

  -127.7664 -81.9449 -81.9449 -81.8973 -20.1806  -9.9562  -9.3349  -8.4993
    -8.4993  -8.3543  -8.2617  -5.5125  -2.7712  -2.7712  -1.3220   1.1350
     1.4944   1.6876

     occupation numbers 
     1.0000   1.0000   1.0000   1.0000   1.0000   1.0000   1.0000   1.0000
     1.0000   1.0000   1.0000   1.0000   1.0069   1.0069   0.0000   0.0000
     0.0000   0.0000

          k = 0.0000 0.0833 0.0000 (  7841 PWs)   bands (ev):

  -127.7663 -81.9460 -81.9448 -81.8972 -20.1349  -9.8700  -9.3066  -8.5394
    -8.4951  -8.3771  -8.2442  -5.4165  -3.0728  -2.7441  -1.1820   1.2924
     1.6391   1.8297

     occupation numbers 
     1.0000   1.0000   1.0000   1.0000   1.0000   1.0000   1.0000   1.0000
     1.0000   1.0000   1.0000   1.0000   1.0000   1.0110   0.0000   0.0000
     0.0000   0.0000

          k = 0.0000 0.1667 0.0000 (  7857 PWs)   bands (ev):

  -127.7661 -81.9492 -81.9446 -81.8970 -20.0067  -9.6504  -9.2119  -8.6329
    -8.4910  -8.4306  -8.1958  -5.2181  -3.6640  -2.6701  -0.8515   1.7397
     2.0596   2.2555

     occupation numbers 
     1.0000   1.0000   1.0000   1.0000   1.0000   1.0000   1.0000   1.0000
     1.0000   1.0000   1.0000   1.0000   1.0000   1.0318   0.0000   0.0000
     0.0000   0.0000

          k = 0.0000 0.2500 0.0000 (  7881 PWs)   bands (ev):

  -127.7658 -81.9534 -81.9443 -81.8967 -19.8233  -9.4386  -9.0210  -8.7118
    -8.5439  -8.4432  -8.1097  -5.3539  -3.8074  -2.5697  -0.4102   2.4497
     2.7342   2.9604

     occupation numbers 
     1.0000   1.0000   1.0000   1.0000   1.0000   1.0000   1.0000   1.0000
     1.0000   1.0000   1.0000   1.0000   1.0000   1.0756   0.0000   0.0000
     0.0000   0.0000

          k = 0.0000 0.3333 0.0000 (  7882 PWs)   bands (ev):

  -127.7655 -81.9577 -81.9441 -81.8963 -19.6291  -9.3404  -8.9189  -8.6307
    -8.6236  -8.4264  -7.9244  -5.9138  -3.2133  -2.4698   0.0246   3.2472
     3.4254   3.7314

     occupation numbers 
     1.0000   1.0000   1.0000   1.0000   1.0000   1.0000   1.0000   1.0000
     1.0000   1.0000   1.0000   1.0000   1.0000   1.0553   0.0000   0.0000
     0.0000   0.0000

          k = 0.0000 0.4167 0.0000 (  7900 PWs)   bands (ev):

  -127.7653 -81.9608 -81.9439 -81.8961 -19.4791  -9.3124  -8.9312  -8.6826
    -8.5505  -8.4120  -7.6085  -6.4095  -2.3968  -2.2576  -0.0288   2.1044
     4.3565   4.8639

     occupation numbers 
     1.0000   1.0000   1.0000   1.0000   1.0000   1.0000   1.0000   1.0000
     1.0000   1.0000   1.0000   1.0000   0.9212   0.4366   0.0000   0.0000
     0.0000   0.0000

          k = 0.0000-0.5000 0.0000 (  7920 PWs)   bands (ev):

  -127.7652 -81.9620 -81.9438 -81.8960 -19.4224  -9.3094  -8.9362  -8.7040
    -8.5435  -8.4066  -7.4124  -6.6326  -2.3701  -1.2270  -0.9112   1.9249
     4.4564   5.8296

     occupation numbers 
     1.0000   1.0000   1.0000   1.0000   1.0000   1.0000   1.0000   1.0000
     1.0000   1.0000   1.0000   1.0000   0.8433   0.0000   0.0000   0.0000
     0.0000   0.0000

          k = 0.0833 0.0833 0.0000 (  7870 PWs)   bands (ev):

  -127.7662 -81.9460 -81.9460 -81.8972 -20.0896  -9.7848  -9.2795  -8.5385
    -8.5296  -8.4043  -8.2207  -5.3318  -3.1084  -2.9470  -1.0547   1.4462
     1.7822   1.9719

     occupation numbers 
     1.0000   1.0000   1.0000   1.0000   1.0000   1.0000   1.0000   1.0000
     1.0000   1.0000   1.0000   1.0000   1.0000   1.0001   0.0000   0.0000
     0.0000   0.0000

          k = 0.0833 0.1667 0.0000 (  7854 PWs)   bands (ev):

  -127.7660 -81.9491 -81.9457 -81.8969 -19.9628  -9.5687  -9.1897  -8.6259
    -8.5266  -8.4659  -8.1581  -5.1691  -3.5909  -2.9057  -0.7381   1.8880
     2.1989   2.3979

     occupation numbers 
     1.0000   1.0000   1.0000   1.0000   1.0000   1.0000   1.0000   1.0000
     1.0000   1.0000   1.0000   1.0000   1.0000   1.0004   0.0000   0.0000
     0.0000   0.0000

          k = 0.0833 0.2500 0.0000 (  7876 PWs)   bands (ev):

  -127.7657 -81.9533 -81.9455 -81.8966 -19.7814  -9.3647  -9.0124  -8.7099
    -8.5725  -8.4833  -8.0460  -5.3255  -3.7201  -2.7628  -0.3030   2.5941
     2.8688   3.1031

     occupation numbers 
     1.0000   1.0000   1.0000   1.0000   1.0000   1.0000   1.0000   1.0000
     1.0000   1.0000   1.0000   1.0000   1.0000   1.0080   0.0000   0.0000
     0.0000   0.0000

          k = 0.0833 0.3333 0.0000 (  7864 PWs)   bands (ev):

  -127.7654 -81.9575 -81.9452 -81.8962 -19.5895  -9.2691  -8.9189  -8.7242
    -8.5823  -8.4692  -7.8230  -5.8597  -3.2273  -2.5599   0.1369   3.3690
     3.5510   3.8660

     occupation numbers 
     1.0000   1.0000   1.0000   1.0000   1.0000   1.0000   1.0000   1.0000
     1.0000   1.0000   1.0000   1.0000   1.0000   1.0787   0.0000   0.0000
     0.0000   0.0000

          k = 0.0833 0.4167 0.0000 (  7894 PWs)   bands (ev):

  -127.7652 -81.9607 -81.9450 -81.8960 -19.4414  -9.2383  -8.9300  -8.7683
    -8.5489  -8.4456  -7.4906  -6.3378  -2.7655  -2.0020   0.1186   2.1813
     4.4924   4.9877

     occupation numbers 
     1.0000   1.0000   1.0000   1.0000   1.0000   1.0000   1.0000   1.0000
     1.0000   1.0000   1.0000   1.0000   1.0076   0.0126   0.0000   0.0000
     0.0000   0.0000

          k = 0.0833-0.5000 0.0000 (  7904 PWs)   bands (ev):

  -127.7652 -81.9619 -81.9449 -81.8959 -19.3854  -9.2338  -8.9351  -8.7891
    -8.5537  -8.4330  -7.2916  -6.5566  -2.6698  -1.1121  -0.6786   1.9855
     4.5968   5.9012

     occupation numbers 
     1.0000   1.0000   1.0000   1.0000   1.0000   1.0000   1.0000   1.0000
     1.0000   1.0000   1.0000   1.0000   1.0319   0.0000   0.0000   0.0000
     0.0000   0.0000

          k = 0.1667 0.1667 0.0000 (  7864 PWs)   bands (ev):

  -127.7658 -81.9489 -81.9488 -81.8967 -19.8399  -9.3652  -9.1176  -8.6137
    -8.6071  -8.5475  -8.0556  -5.0990  -3.4085  -3.3598  -0.4382   2.3204
     2.6069   2.8241

     occupation numbers 
     1.0000   1.0000   1.0000   1.0000   1.0000   1.0000   1.0000   1.0000
     1.0000   1.0000   1.0000   1.0000   1.0000   1.0000   0.0000   0.0000
     0.0000   0.0000

          k = 0.1667 0.2500 0.0000 (  7859 PWs)   bands (ev):

  -127.7655 -81.9531 -81.9485 -81.8963 -19.6644  -9.1888  -8.9828  -8.7116
    -8.6155  -8.5855  -7.8740  -5.2653  -3.6680  -2.9988  -0.0099   3.0173
     3.2657   3.5301

     occupation numbers 
     1.0000   1.0000   1.0000   1.0000   1.0000   1.0000   1.0000   1.0000
     1.0000   1.0000   1.0000   1.0000   1.0000   1.0000   0.0000   0.0000
     0.0000   0.0000

          k = 0.1667 0.3333 0.0000 (  7846 PWs)   bands (ev):

  -127.7652 -81.9573 -81.9482 -81.8960 -19.4790  -9.1029  -8.9362  -8.8104
    -8.5907  -8.5458  -7.5730  -5.7148  -3.5621  -2.4284   0.4439   3.6894
     3.9430   4.2561

     occupation numbers 
     1.0000   1.0000   1.0000   1.0000   1.0000   1.0000   1.0000   1.0000
     1.0000   1.0000   1.0000   1.0000   1.0000   0.9940   0.0000   0.0000
     0.0000   0.0000

          k = 0.1667 0.4167 0.0000 (  7870 PWs)   bands (ev):

  -127.7650 -81.9604 -81.9480 -81.8958 -19.3361  -9.0548  -8.9669  -8.8882
    -8.6104  -8.4702  -7.2097  -6.1411  -3.3854  -1.6036   0.5084   2.4002
     4.8934   5.3321

     occupation numbers 
     1.0000   1.0000   1.0000   1.0000   1.0000   1.0000   1.0000   1.0000
     1.0000   1.0000   1.0000   1.0000   1.0000   0.0000   0.0000   0.0000
     0.0000   0.0000

          k = 0.1667-0.5000 0.0000 (  7874 PWs)   bands (ev):

  -127.7649 -81.9616 -81.9479 -81.8957 -19.2822  -9.0310  -8.9898  -8.9181
    -8.6247  -8.4469  -7.0065  -6.3450  -3.3132  -0.7715  -0.1686   2.1571
     5.0122   6.0734

     occupation numbers 
     1.0000   1.0000   1.0000   1.0000   1.0000   1.0000   1.0000   1.0000
     1.0000   1.0000   1.0000   1.0000   1.0000   0.0000   0.0000   0.0000
     0.0000   0.0000

          k = 0.2500 0.2500 0.0000 (  7842 PWs)   bands (ev):

  -127.7652 -81.9528 -81.9526 -81.8960 -19.4976  -9.0967  -8.8806  -8.7154
    -8.7024  -8.6141  -7.6001  -5.2824  -4.0076  -2.6198   0.4180   3.6956
     3.9124   4.2366

     occupation numbers 
     1.0000   1.0000   1.0000   1.0000   1.0000   1.0000   1.0000   1.0000
     1.0000   1.0000   1.0000   1.0000   1.0000   1.0538   0.0000   0.0000
     0.0000   0.0000

          k = 0.2500 0.3333 0.0000 (  7834 PWs)   bands (ev):

  -127.7649 -81.9569 -81.9524 -81.8957 -19.3217  -9.1210  -8.8643  -8.7809
    -8.6814  -8.5344  -7.2332  -5.5286  -4.1468  -1.9264   0.8895   4.1146
     4.5867   4.8596

     occupation numbers 
     1.0000   1.0000   1.0000   1.0000   1.0000   1.0000   1.0000   1.0000
     1.0000   1.0000   1.0000   1.0000   1.0000   0.0024   0.0000   0.0000
     0.0000   0.0000

          k = 0.2500 0.4167 0.0000 (  7841 PWs)   bands (ev):

  -127.7647 -81.9601 -81.9521 -81.8954 -19.1865  -9.1586  -8.9169  -8.8158
    -8.6747  -8.4445  -6.8588  -5.8597  -4.0767  -1.0306   1.0592   2.7317
     5.5291   5.7440

     occupation numbers 
     1.0000   1.0000   1.0000   1.0000   1.0000   1.0000   1.0000   1.0000
     1.0000   1.0000   1.0000   1.0000   1.0000   0.0000   0.0000   0.0000
     0.0000   0.0000

          k = 0.2500-0.5000 0.0000 (  7850 PWs)   bands (ev):

  -127.7647 -81.9612 -81.9521 -81.8953 -19.1355  -9.1742  -8.9348  -8.8364
    -8.6734  -8.4140  -6.6658  -6.0310  -4.0262  -0.2153   0.4903   2.4099
     5.6444   6.2145

     occupation numbers 
     1.0000   1.0000   1.0000   1.0000   1.0000   1.0000   1.0000   1.0000
     1.0000   1.0000   1.0000   1.0000   1.0000   0.0000   0.0000   0.0000
     0.0000   0.0000

          k = 0.3333 0.3333 0.0000 (  7832 PWs)   bands (ev):

  -127.7647 -81.9567 -81.9565 -81.8953 -19.1563  -9.2264  -8.8920  -8.8317
    -8.5181  -8.5161  -6.8487  -5.4209  -4.5948  -1.1935   1.3866   4.2044
     5.1184   5.5626

     occupation numbers 
     1.0000   1.0000   1.0000   1.0000   1.0000   1.0000   1.0000   1.0000
     1.0000   1.0000   1.0000   1.0000   1.0000   0.0000   0.0000   0.0000
     0.0000   0.0000

          k = 0.3333 0.4167 0.0000 (  7838 PWs)   bands (ev):

  -127.7645 -81.9597 -81.9563 -81.8951 -19.0294  -9.2988  -8.9457  -8.8889
    -8.5023  -8.3728  -6.5034  -5.5480  -4.6780  -0.2705   1.6743   3.1116
     5.3845   6.3365

     occupation numbers 
     1.0000   1.0000   1.0000   1.0000   1.0000   1.0000   1.0000   1.0000
     1.0000   1.0000   1.0000   1.0000   1.0000   0.0000   0.0000   0.0000
     0.0000   0.0000

          k = 0.3333-0.5000 0.0000 (  7856 PWs)   bands (ev):

  -127.7644 -81.9608 -81.9563 -81.8950 -18.9815  -9.3236  -8.9657  -8.9145
    -8.4969  -8.3238  -6.3439  -5.6652  -4.6451   0.5470   1.2483   2.6855
     5.5042   6.7160

     occupation numbers 
     1.0000   1.0000   1.0000   1.0000   1.0000   1.0000   1.0000   1.0000
     1.0000   1.0000   1.0000   1.0000   1.0000   0.0000   0.0000   0.0000
     0.0000   0.0000

          k = 0.4167 0.4167 0.0000 (  7842 PWs)   bands (ev):

  -127.7642 -81.9594 -81.9594 -81.8949 -18.9090  -9.3858  -8.9879  -8.9655
    -8.4409  -8.2319  -6.2197  -5.3272  -5.0418   0.6668   2.1486   3.2240
     4.3064   6.5825

     occupation numbers 
     1.0000   1.0000   1.0000   1.0000   1.0000   1.0000   1.0000   1.0000
     1.0000   1.0000   1.0000   1.0000   1.0000   0.0000   0.0000   0.0000
     0.0000   0.0000

          k = 0.4167-0.5000 0.0000 (  7830 PWs)   bands (ev):

  -127.7642 -81.9605 -81.9593 -81.8948 -18.8637  -9.4144  -9.0058  -8.9958
    -8.4290  -8.1717  -6.1027  -5.3471  -5.0642   1.5145   1.9871   2.8732
     4.1470   6.5769

     occupation numbers 
     1.0000   1.0000   1.0000   1.0000   1.0000   1.0000   1.0000   1.0000
     1.0000   1.0000   1.0000   1.0000   1.0000   0.0000   0.0000   0.0000
     0.0000   0.0000

          k =-0.5000-0.5000 0.0000 (  7904 PWs)   bands (ev):

  -127.7641 -81.9605 -81.9605 -81.8947 -18.8194  -9.4441  -9.0253  -9.0253
    -8.4148  -8.1062  -6.0074  -5.2165  -5.2165   2.3749   2.5567   2.8875
     2.8875   6.4477

     occupation numbers 
     1.0000   1.0000   1.0000   1.0000   1.0000   1.0000   1.0000   1.0000
     1.0000   1.0000   1.0000   1.0000   1.0000   0.0000   0.0000   0.0000
     0.0000   0.0000

     the Fermi energy is    -2.2473 ev

!    total energy              =    -504.22050319 Ry
     estimated scf accuracy    <          2.9E-09 Ry
     smearing contrib. (-TS)   =       0.00078971 Ry
     internal energy E=F+TS    =    -504.22129291 Ry

     The total energy is F=E-TS. E is the sum of the following terms:
     one-electron contribution =   -2821.99240927 Ry
     hartree contribution      =    1410.07608474 Ry
     xc contribution           =     -50.02680165 Ry
     ewald contribution        =     967.25825015 Ry
     one-center paw contrib.   =      -9.53641687 Ry
      -> PAW hartree energy AE =      24.74704909 Ry
      -> PAW hartree energy PS =     -24.63787502 Ry
      -> PAW xc energy AE      =     -16.46264359 Ry
      -> PAW xc energy PS      =       6.81705264 Ry
      -> total E_H with PAW    =    1410.18525881 Ry
      -> total E_XC with PAW   =     -59.67239260 Ry

     convergence has been achieved in  12 iterations

     negative rho (up, down):  1.384E-04 0.000E+00

     Forces acting on atoms (cartesian axes, Ry/au):

     atom    1 type  2   force =     0.00000000    0.00000000    0.09031216
     atom    2 type  1   force =     0.00000000    0.00000000    0.11125397
     atom    3 type  3   force =     0.00000000    0.00000000   -0.20156613
     The non-local contrib.  to forces
     atom    1 type  2   force =     0.00000000    0.00000000   -0.38663972
     atom    2 type  1   force =     0.00000000    0.00000000    0.85816990
     atom    3 type  3   force =     0.00000000    0.00000000   -0.02848406
     The ionic contribution  to forces
     atom    1 type  2   force =     0.00000000    0.00000000  -52.87127021
     atom    2 type  1   force =     0.00000000    0.00000000   41.85845664
     atom    3 type  3   force =     0.00000000    0.00000000   11.01281357
     The local contribution  to forces
     atom    1 type  2   force =     0.00000000    0.00000000   53.34823311
     atom    2 type  1   force =     0.00000000    0.00000000  -42.59372467
     atom    3 type  3   force =    -0.00000000   -0.00000000  -11.18592511
     The core correction contribution to forces
     atom    1 type  2   force =     0.00000000    0.00000000    0.00000000
     atom    2 type  1   force =     0.00000000    0.00000000   -0.01164442
     atom    3 type  3   force =     0.00000000    0.00000000    0.00000000
     The Hubbard contrib.    to forces
     atom    1 type  2   force =     0.00000000    0.00000000    0.00000000
     atom    2 type  1   force =     0.00000000    0.00000000    0.00000000
     atom    3 type  3   force =     0.00000000    0.00000000    0.00000000
     The SCF correction term to forces
     atom    1 type  2   force =    -0.00000000    0.00000000   -0.00002885
     atom    2 type  1   force =    -0.00000000    0.00000000   -0.00002131
     atom    3 type  3   force =    -0.00000000    0.00000000    0.00001163

     Total force =     0.247311     Total SCF correction =     0.000038


     Computing stress (Cartesian axis) and pressure


     negative rho (up, down):  1.384E-04 0.000E+00
          total   stress  (Ry/bohr**3)                   (kbar)     P=      -23.96
   0.00003951   0.00000000   0.00000000            5.81        0.00        0.00
   0.00000000   0.00003951   0.00000000            0.00        5.81        0.00
   0.00000000   0.00000000  -0.00056768            0.00        0.00      -83.51

     kinetic stress (kbar)   4357.34      0.00      0.00
                                0.00   4357.34      0.00
                                0.00      0.00   4120.98

     local   stress (kbar)-273445.12      0.00     -0.00
                                0.00-273445.12     -0.00
                               -0.00     -0.00 273894.08

     nonloc. stress (kbar)    -80.75      0.00      0.00
                                0.00    -80.75      0.00
                                0.00      0.00    -81.53

     hartree stress (kbar) 142840.86     -0.00     -0.00
                               -0.00 142840.86      0.00
                               -0.00      0.00-128095.53

     exc-cor stress (kbar)  -1736.78      0.00     -0.00
                                0.00  -1736.78      0.00
                               -0.00      0.00  -1736.91

     corecor stress (kbar)    -47.70      0.00     -0.00
                                0.00    -47.70      0.00
                               -0.00      0.00    -46.76

     ewald   stress (kbar) 128117.97      0.00     -0.00
                                0.00 128117.97     -0.00
                               -0.00     -0.00-148137.84

     hubbard stress (kbar)      0.00      0.00      0.00
                                0.00      0.00      0.00
                                0.00      0.00      0.00

     DFT-D   stress (kbar)      0.00      0.00      0.00
                                0.00      0.00      0.00
                                0.00      0.00      0.00

     XDM     stress (kbar)      0.00      0.00      0.00
                                0.00      0.00      0.00
                                0.00      0.00      0.00

     dft-nl  stress (kbar)      0.00      0.00      0.00
                                0.00      0.00      0.00
                                0.00      0.00      0.00

     TS-vdW  stress (kbar)      0.00      0.00      0.00
                                0.00      0.00      0.00
                                0.00      0.00      0.00

     MDB     stress (kbar)      0.00      0.00      0.00
                                0.00      0.00      0.00
                                0.00      0.00      0.00

     3D-RISM stress (kbar)      0.00      0.00      0.00
                                0.00      0.00      0.00
                                0.00      0.00      0.00


     Writing all to output data dir ./temp_cubic/aiida.save/ :
     XML data file, charge density, pseudopotentials, collected wavefunctions

     init_run     :    128.43s CPU      6.31s WALL (       1 calls)
     electrons    :   2280.76s CPU    115.51s WALL (       1 calls)
     forces       :     21.51s CPU      1.36s WALL (       1 calls)
     stress       :     33.15s CPU      4.07s WALL (       1 calls)

     Called by init_run:
     wfcinit      :    121.80s CPU      5.35s WALL (       1 calls)
     wfcinit:atom :      1.66s CPU      0.09s WALL (      28 calls)
     wfcinit:wfcr :    115.94s CPU      4.99s WALL (      28 calls)
     potinit      :      2.54s CPU      0.19s WALL (       1 calls)
     hinit0       :      1.47s CPU      0.28s WALL (       1 calls)

     Called by electrons:
     c_bands      :   1901.51s CPU     90.33s WALL (      12 calls)
     sum_band     :    338.69s CPU     19.17s WALL (      12 calls)
     v_of_rho     :     12.03s CPU      0.98s WALL (      13 calls)
     v_h          :      1.86s CPU      0.14s WALL (      13 calls)
     v_xc         :     11.63s CPU      0.97s WALL (      15 calls)
     newd         :     17.94s CPU      4.77s WALL (      13 calls)
     PAW_pot      :      5.34s CPU      0.25s WALL (      13 calls)
     mix_rho      :      4.51s CPU      0.25s WALL (      12 calls)

     Called by c_bands:
     init_us_2    :     26.20s CPU      1.55s WALL (     756 calls)
     cegterg      :   1870.04s CPU     88.41s WALL (     336 calls)

     Called by sum_band:
     sum_band:wei :      0.01s CPU      0.00s WALL (      12 calls)
     sum_band:loo :    327.34s CPU     13.75s WALL (      12 calls)
     sum_band:buf :      2.23s CPU      0.09s WALL (     336 calls)
     sum_band:ini :     11.92s CPU      0.55s WALL (     336 calls)
     sum_band:cal :     53.99s CPU      1.97s WALL (     336 calls)
     sum_band:bec :      9.27s CPU      0.44s WALL (     336 calls)
     addusdens    :      9.55s CPU      5.18s WALL (      12 calls)
                                        0.00s GPU  (      12 calls)
     addusd:skk   :      0.20s CPU      0.01s WALL (      36 calls)
                                        0.00s GPU  (      36 calls)

     Called by *egterg:
     cdiaghg      :      6.64s CPU      0.36s WALL (    1316 calls)
     cegterg:over :     98.46s CPU      5.28s WALL (     980 calls)
     cegterg:upda :     52.99s CPU      4.17s WALL (     980 calls)
     cegterg:last :     35.71s CPU      5.64s WALL (     586 calls)
     h_psi        :   1592.32s CPU     67.97s WALL (    1344 calls)
     s_psi        :     99.49s CPU      4.82s WALL (    1344 calls)
     g_psi        :     12.84s CPU      0.66s WALL (     980 calls)

     Called by h_psi:
     h_psi:calbec :    134.04s CPU      4.88s WALL (    1344 calls)
     vloc_psi     :   1338.41s CPU     57.28s WALL (    1344 calls)
     add_vuspsi   :     97.50s CPU      4.75s WALL (    1344 calls)

     General routines
     calbec       :    207.27s CPU      7.63s WALL (    1820 calls)
     fft          :     13.87s CPU      0.96s WALL (     192 calls)
     ffts         :      1.03s CPU      0.04s WALL (      25 calls)
     fftw         :    784.45s CPU     34.70s WALL (   35038 calls)
     interpolate  :      3.13s CPU      0.11s WALL (      13 calls)

     Parallel routines

     PAW routines
     PAW_pot      :      5.34s CPU      0.25s WALL (      13 calls)
     PAW_symme    :      0.00s CPU      0.00s WALL (      25 calls)

     PWSCF        :  41m14.71s CPU   2m10.56s WALL


   This run was terminated on:  20:37:17  14Jun2024            

=------------------------------------------------------------------------------=
   JOB DONE.
=------------------------------------------------------------------------------=
