
     Program PWSCF v.7.3.1 starts on 14Jun2024 at 21: 9: 7 

     This program is part of the open-source Quantum ESPRESSO suite
     for quantum simulation of materials; please cite
         "P. Giannozzi et al., J. Phys.:Condens. Matter 21 395502 (2009);
         "P. Giannozzi et al., J. Phys.:Condens. Matter 29 465901 (2017);
         "P. Giannozzi et al., J. Chem. Phys. 152 154105 (2020);
          URL http://www.quantum-espresso.org", 
     in publications or presentations arising from this work. More details at
     http://www.quantum-espresso.org/quote

     Parallel version (MPI & OpenMP), running on      24 processor cores
     Number of MPI processes:                 1
     Threads/MPI process:                    24

     MPI processes distributed on     1 nodes
     5433 MiB available memory on the printing compute node when the environment starts

     Waiting for input...
     Reading input from standard input
Warning: card H      1.00794 H.PBE-RRKJUS_PSL.1.0.0.UPF ignored

     Current dimensions of program PWSCF are:
     Max number of different atomic species (ntypx) = 10
     Max number of k-points (npk) =  40000
     Max angular momentum in pseudopotentials (lmaxx) =  4
     file O.pbe-n-kjpaw_psl.0.1.UPF: wavefunction(s)  2P renormalized
     Message from routine setup:
     using ibrav=0 with symmetry is DISCOURAGED, use correct ibrav instead

     Subspace diagonalization in iterative solution of the eigenvalue problem:
     a serial algorithm will be used


     G-vector sticks info
     --------------------
     sticks:   dense  smooth     PW     G-vecs:    dense   smooth      PW
     Sum         829     421    137               177743    63081   11257

     Using Slab Decomposition



     bravais-lattice index     =            0
     lattice parameter (alat)  =       5.0869  a.u.
     unit-cell volume          =    1316.2915 (a.u.)^3
     number of atoms/cell      =            2
     number of atomic types    =            2
     number of electrons       =        26.00
     number of Kohn-Sham states=           17
     kinetic-energy cutoff     =      50.0000  Ry
     charge density cutoff     =     400.0000  Ry
     scf convergence threshold =      1.0E-08
     mixing beta               =       0.4000
     number of iterations used =            8  plain     mixing
     Exchange-correlation= SLA  PW   PBE  PBE
                           (   1   4   3   4   0   0   0)

     celldm(1)=   5.086871  celldm(2)=   0.000000  celldm(3)=   0.000000
     celldm(4)=   0.000000  celldm(5)=   0.000000  celldm(6)=   0.000000

     crystal axes: (cart. coord. in units of alat)
               a(1) = (   1.000000   0.000000   0.000000 )  
               a(2) = (   0.000000   1.000000   0.000000 )  
               a(3) = (   0.000000   0.000000  10.000000 )  

     reciprocal axes: (cart. coord. in units 2 pi/alat)
               b(1) = (  1.000000  0.000000  0.000000 )  
               b(2) = (  0.000000  1.000000  0.000000 )  
               b(3) = (  0.000000  0.000000  0.100000 )  


     PseudoPot. # 1 for O  read from file:
     ../SSSP_1.3.0_PBE_efficiency/O.pbe-n-kjpaw_psl.0.1.UPF
     MD5 check sum: 0234752ac141de4415c5fc33072bef88
     Pseudo is Projector augmented-wave + core cor, Zval =  6.0
     Generated using "atomic" code by A. Dal Corso  v.5.0.99 svn rev. 10869
     Shape of augmentation charge: BESSEL
     Using radial grid of 1095 points,  4 beta functions with: 
                l(1) =   0
                l(2) =   0
                l(3) =   1
                l(4) =   1
     Q(r) pseudized with 0 coefficients 


     PseudoPot. # 2 for Zn read from file:
     ../SSSP_1.3.0_PBE_efficiency/Zn_pbe_v1.uspp.F.UPF
     MD5 check sum: df62231357ef9e81f77b2b3087fa5675
     Pseudo is Ultrasoft, Zval = 20.0
     Generated by new atomic code, or converted to UPF format
     Using radial grid of  943 points,  6 beta functions with: 
                l(1) =   0
                l(2) =   0
                l(3) =   1
                l(4) =   1
                l(5) =   2
                l(6) =   2
     Q(r) pseudized with  8 coefficients,  rinner =    1.100   1.100   1.100
                                                       1.100   1.100

     atomic species   valence    mass     pseudopotential
     O                 6.00    15.99940     O ( 1.00)
     Zn               20.00    65.38000     Zn( 1.00)

      8 Sym. Ops. (no inversion) found


                                    s                        frac. trans.

      isym =  1     identity                                     

 cryst.   s( 1) = (     1          0          0      )
                  (     0          1          0      )
                  (     0          0          1      )

 cart.    s( 1) = (  1.0000000  0.0000000  0.0000000 )
                  (  0.0000000  1.0000000  0.0000000 )
                  (  0.0000000  0.0000000  1.0000000 )


      isym =  2     180 deg rotation - cart. axis [0,0,1]        

 cryst.   s( 2) = (    -1          0          0      )
                  (     0         -1          0      )
                  (     0          0          1      )

 cart.    s( 2) = ( -1.0000000  0.0000000  0.0000000 )
                  (  0.0000000 -1.0000000  0.0000000 )
                  (  0.0000000  0.0000000  1.0000000 )


      isym =  3      90 deg rotation - cart. axis [0,0,-1]       

 cryst.   s( 3) = (     0         -1          0      )
                  (     1          0          0      )
                  (     0          0          1      )

 cart.    s( 3) = (  0.0000000  1.0000000  0.0000000 )
                  ( -1.0000000  0.0000000  0.0000000 )
                  (  0.0000000  0.0000000  1.0000000 )


      isym =  4      90 deg rotation - cart. axis [0,0,1]        

 cryst.   s( 4) = (     0          1          0      )
                  (    -1          0          0      )
                  (     0          0          1      )

 cart.    s( 4) = (  0.0000000 -1.0000000  0.0000000 )
                  (  1.0000000  0.0000000  0.0000000 )
                  (  0.0000000  0.0000000  1.0000000 )


      isym =  5     inv. 180 deg rotation - cart. axis [0,1,0]   

 cryst.   s( 5) = (     1          0          0      )
                  (     0         -1          0      )
                  (     0          0          1      )

 cart.    s( 5) = (  1.0000000  0.0000000  0.0000000 )
                  (  0.0000000 -1.0000000  0.0000000 )
                  (  0.0000000  0.0000000  1.0000000 )


      isym =  6     inv. 180 deg rotation - cart. axis [1,0,0]   

 cryst.   s( 6) = (    -1          0          0      )
                  (     0          1          0      )
                  (     0          0          1      )

 cart.    s( 6) = ( -1.0000000  0.0000000  0.0000000 )
                  (  0.0000000  1.0000000  0.0000000 )
                  (  0.0000000  0.0000000  1.0000000 )


      isym =  7     inv. 180 deg rotation - cart. axis [1,1,0]   

 cryst.   s( 7) = (     0         -1          0      )
                  (    -1          0          0      )
                  (     0          0          1      )

 cart.    s( 7) = (  0.0000000 -1.0000000  0.0000000 )
                  ( -1.0000000  0.0000000  0.0000000 )
                  (  0.0000000  0.0000000  1.0000000 )


      isym =  8     inv. 180 deg rotation - cart. axis [1,-1,0]  

 cryst.   s( 8) = (     0          1          0      )
                  (     1          0          0      )
                  (     0          0          1      )

 cart.    s( 8) = (  0.0000000  1.0000000  0.0000000 )
                  (  1.0000000  0.0000000  0.0000000 )
                  (  0.0000000  0.0000000  1.0000000 )


   Cartesian axes

     site n.     atom                  positions (alat units)
         1        Zn     tau(   1) = (   0.0000000   0.0000000   0.0000000  )
         2        O      tau(   2) = (   0.5000000   0.5000000   0.5000000  )

   Crystallographic axes

     site n.     atom                  positions (cryst. coord.)
         1        Zn     tau(   1) = (  0.0000000  0.0000000  0.0000000  )
         2        O      tau(   2) = (  0.5000000  0.5000000  0.0500000  )

     number of k points=    28  Marzari-Vanderbilt smearing, width (Ry)=  0.0147
                       cart. coord. in units 2pi/alat
        k(    1) = (   0.0000000   0.0000000   0.0000000), wk =   0.0138889
        k(    2) = (   0.0000000   0.0833333   0.0000000), wk =   0.0555556
        k(    3) = (   0.0000000   0.1666667   0.0000000), wk =   0.0555556
        k(    4) = (   0.0000000   0.2500000   0.0000000), wk =   0.0555556
        k(    5) = (   0.0000000   0.3333333   0.0000000), wk =   0.0555556
        k(    6) = (   0.0000000   0.4166667   0.0000000), wk =   0.0555556
        k(    7) = (   0.0000000  -0.5000000   0.0000000), wk =   0.0277778
        k(    8) = (   0.0833333   0.0833333   0.0000000), wk =   0.0555556
        k(    9) = (   0.0833333   0.1666667   0.0000000), wk =   0.1111111
        k(   10) = (   0.0833333   0.2500000   0.0000000), wk =   0.1111111
        k(   11) = (   0.0833333   0.3333333   0.0000000), wk =   0.1111111
        k(   12) = (   0.0833333   0.4166667   0.0000000), wk =   0.1111111
        k(   13) = (   0.0833333  -0.5000000   0.0000000), wk =   0.0555556
        k(   14) = (   0.1666667   0.1666667   0.0000000), wk =   0.0555556
        k(   15) = (   0.1666667   0.2500000   0.0000000), wk =   0.1111111
        k(   16) = (   0.1666667   0.3333333   0.0000000), wk =   0.1111111
        k(   17) = (   0.1666667   0.4166667   0.0000000), wk =   0.1111111
        k(   18) = (   0.1666667  -0.5000000   0.0000000), wk =   0.0555556
        k(   19) = (   0.2500000   0.2500000   0.0000000), wk =   0.0555556
        k(   20) = (   0.2500000   0.3333333   0.0000000), wk =   0.1111111
        k(   21) = (   0.2500000   0.4166667   0.0000000), wk =   0.1111111
        k(   22) = (   0.2500000  -0.5000000   0.0000000), wk =   0.0555556
        k(   23) = (   0.3333333   0.3333333   0.0000000), wk =   0.0555556
        k(   24) = (   0.3333333   0.4166667   0.0000000), wk =   0.1111111
        k(   25) = (   0.3333333  -0.5000000   0.0000000), wk =   0.0555556
        k(   26) = (   0.4166667   0.4166667   0.0000000), wk =   0.0555556
        k(   27) = (   0.4166667  -0.5000000   0.0000000), wk =   0.0555556
        k(   28) = (  -0.5000000  -0.5000000   0.0000000), wk =   0.0138889

                       cryst. coord.
        k(    1) = (   0.0000000   0.0000000   0.0000000), wk =   0.0138889
        k(    2) = (   0.0000000   0.0833333   0.0000000), wk =   0.0555556
        k(    3) = (   0.0000000   0.1666667   0.0000000), wk =   0.0555556
        k(    4) = (   0.0000000   0.2500000   0.0000000), wk =   0.0555556
        k(    5) = (   0.0000000   0.3333333   0.0000000), wk =   0.0555556
        k(    6) = (   0.0000000   0.4166667   0.0000000), wk =   0.0555556
        k(    7) = (   0.0000000  -0.5000000   0.0000000), wk =   0.0277778
        k(    8) = (   0.0833333   0.0833333   0.0000000), wk =   0.0555556
        k(    9) = (   0.0833333   0.1666667   0.0000000), wk =   0.1111111
        k(   10) = (   0.0833333   0.2500000   0.0000000), wk =   0.1111111
        k(   11) = (   0.0833333   0.3333333   0.0000000), wk =   0.1111111
        k(   12) = (   0.0833333   0.4166667   0.0000000), wk =   0.1111111
        k(   13) = (   0.0833333  -0.5000000   0.0000000), wk =   0.0555556
        k(   14) = (   0.1666667   0.1666667   0.0000000), wk =   0.0555556
        k(   15) = (   0.1666667   0.2500000   0.0000000), wk =   0.1111111
        k(   16) = (   0.1666667   0.3333333   0.0000000), wk =   0.1111111
        k(   17) = (   0.1666667   0.4166667   0.0000000), wk =   0.1111111
        k(   18) = (   0.1666667  -0.5000000   0.0000000), wk =   0.0555556
        k(   19) = (   0.2500000   0.2500000   0.0000000), wk =   0.0555556
        k(   20) = (   0.2500000   0.3333333   0.0000000), wk =   0.1111111
        k(   21) = (   0.2500000   0.4166667   0.0000000), wk =   0.1111111
        k(   22) = (   0.2500000  -0.5000000   0.0000000), wk =   0.0555556
        k(   23) = (   0.3333333   0.3333333   0.0000000), wk =   0.0555556
        k(   24) = (   0.3333333   0.4166667   0.0000000), wk =   0.1111111
        k(   25) = (   0.3333333  -0.5000000   0.0000000), wk =   0.0555556
        k(   26) = (   0.4166667   0.4166667   0.0000000), wk =   0.0555556
        k(   27) = (   0.4166667  -0.5000000   0.0000000), wk =   0.0555556
        k(   28) = (  -0.5000000  -0.5000000   0.0000000), wk =   0.0138889

     Dense  grid:   177743 G-vectors     FFT dimensions: (  36,  36, 324)

     Smooth grid:    63081 G-vectors     FFT dimensions: (  24,  24, 240)

     Dynamical RAM for                 wfc:       2.04 MB

     Dynamical RAM for     wfc (w. buffer):      59.12 MB

     Dynamical RAM for           str. fact:       5.42 MB

     Dynamical RAM for           local pot:       0.00 MB

     Dynamical RAM for          nlocal pot:       3.12 MB

     Dynamical RAM for                qrad:       3.21 MB

     Dynamical RAM for          rho,v,vnew:      17.75 MB

     Dynamical RAM for               rhoin:       5.92 MB

     Dynamical RAM for            rho*nmix:      43.39 MB

     Dynamical RAM for           G-vectors:      10.65 MB

     Dynamical RAM for          h,s,v(r/c):       0.05 MB

     Dynamical RAM for          <psi|beta>:       0.01 MB

     Dynamical RAM for                 psi:       4.08 MB

     Dynamical RAM for                hpsi:       4.08 MB

     Dynamical RAM for                spsi:       4.08 MB

     Dynamical RAM for      wfcinit/wfcrot:       4.08 MB

     Dynamical RAM for           addusdens:     507.17 MB

     Dynamical RAM for          addusforce:     508.53 MB

     Dynamical RAM for         addusstress:     545.14 MB

     Estimated static dynamical RAM per process >     129.34 MB

     Estimated max dynamical RAM per process >     717.88 MB

     Initial potential from superposition of free atoms

     starting charge      25.9999, renormalised to      26.0000

     negative rho (up, down):  1.577E-04 0.000E+00
     Starting wfcs are   17 randomized atomic wfcs
     Checking if some PAW data can be deallocated... 

     total cpu time spent up to now is        3.9 secs

     Self-consistent Calculation

     iteration #  1     ecut=    50.00 Ry     beta= 0.40
     Davidson diagonalization with overlap

---- Real-time Memory Report at c_bands before calling an iterative solver
           596 MiB given to the printing process from OS
             0 MiB allocation reported by mallinfo(arena+hblkhd)
          5299 MiB available memory on the node where the printing process lives
------------------
     ethr =  1.00E-02,  avg # of iterations =  6.2

     negative rho (up, down):  9.145E-05 0.000E+00

     total cpu time spent up to now is       13.9 secs

     WARNING: integrated charge=    26.00002339, expected=    26.00000000

     total energy              =    -502.26008803 Ry
     estimated scf accuracy    <       1.59819459 Ry

     iteration #  2     ecut=    50.00 Ry     beta= 0.40
     Davidson diagonalization with overlap

---- Real-time Memory Report at c_bands before calling an iterative solver
           688 MiB given to the printing process from OS
             0 MiB allocation reported by mallinfo(arena+hblkhd)
          5272 MiB available memory on the node where the printing process lives
------------------
     ethr =  6.15E-03,  avg # of iterations =  4.1

     negative rho (up, down):  1.602E-04 0.000E+00

     total cpu time spent up to now is       24.6 secs

     WARNING: integrated charge=    26.00002158, expected=    26.00000000

     total energy              =    -501.07609703 Ry
     estimated scf accuracy    <      25.35066627 Ry

     iteration #  3     ecut=    50.00 Ry     beta= 0.40
     Davidson diagonalization with overlap

---- Real-time Memory Report at c_bands before calling an iterative solver
           694 MiB given to the printing process from OS
             0 MiB allocation reported by mallinfo(arena+hblkhd)
          5264 MiB available memory on the node where the printing process lives
------------------
     ethr =  6.15E-03,  avg # of iterations =  3.2

     negative rho (up, down):  9.464E-05 0.000E+00

     total cpu time spent up to now is       34.2 secs

     WARNING: integrated charge=    26.00001560, expected=    26.00000000

     total energy              =    -503.02440393 Ry
     estimated scf accuracy    <       0.11754330 Ry

     iteration #  4     ecut=    50.00 Ry     beta= 0.40
     Davidson diagonalization with overlap

---- Real-time Memory Report at c_bands before calling an iterative solver
           696 MiB given to the printing process from OS
             0 MiB allocation reported by mallinfo(arena+hblkhd)
          5265 MiB available memory on the node where the printing process lives
------------------
     ethr =  4.52E-04,  avg # of iterations =  3.0

     negative rho (up, down):  8.238E-05 0.000E+00

     total cpu time spent up to now is       43.1 secs

     WARNING: integrated charge=    26.00001009, expected=    26.00000000

     total energy              =    -503.02349771 Ry
     estimated scf accuracy    <       0.05368254 Ry

     iteration #  5     ecut=    50.00 Ry     beta= 0.40
     Davidson diagonalization with overlap

---- Real-time Memory Report at c_bands before calling an iterative solver
           698 MiB given to the printing process from OS
             0 MiB allocation reported by mallinfo(arena+hblkhd)
          5266 MiB available memory on the node where the printing process lives
------------------
     ethr =  2.06E-04,  avg # of iterations =  1.9

     negative rho (up, down):  9.117E-05 0.000E+00

     total cpu time spent up to now is       50.8 secs

     WARNING: integrated charge=    26.00000599, expected=    26.00000000

     total energy              =    -503.02130974 Ry
     estimated scf accuracy    <       0.01834595 Ry

     iteration #  6     ecut=    50.00 Ry     beta= 0.40
     Davidson diagonalization with overlap

---- Real-time Memory Report at c_bands before calling an iterative solver
           700 MiB given to the printing process from OS
             0 MiB allocation reported by mallinfo(arena+hblkhd)
          5266 MiB available memory on the node where the printing process lives
------------------
     ethr =  7.06E-05,  avg # of iterations =  4.7

     negative rho (up, down):  1.104E-04 0.000E+00

     total cpu time spent up to now is       60.3 secs

     total energy              =    -503.01951994 Ry
     estimated scf accuracy    <       0.00789119 Ry

     iteration #  7     ecut=    50.00 Ry     beta= 0.40
     Davidson diagonalization with overlap

---- Real-time Memory Report at c_bands before calling an iterative solver
           703 MiB given to the printing process from OS
             0 MiB allocation reported by mallinfo(arena+hblkhd)
          5263 MiB available memory on the node where the printing process lives
------------------
     ethr =  3.04E-05,  avg # of iterations =  6.2

     negative rho (up, down):  1.207E-04 0.000E+00

     total cpu time spent up to now is       69.4 secs

     total energy              =    -503.01986935 Ry
     estimated scf accuracy    <       0.00040824 Ry

     iteration #  8     ecut=    50.00 Ry     beta= 0.40
     Davidson diagonalization with overlap

---- Real-time Memory Report at c_bands before calling an iterative solver
           704 MiB given to the printing process from OS
             0 MiB allocation reported by mallinfo(arena+hblkhd)
          5258 MiB available memory on the node where the printing process lives
------------------
     ethr =  1.57E-06,  avg # of iterations =  5.9

     negative rho (up, down):  3.242E-04 0.000E+00

     total cpu time spent up to now is       79.2 secs

     total energy              =    -503.01992360 Ry
     estimated scf accuracy    <       0.00002336 Ry

     iteration #  9     ecut=    50.00 Ry     beta= 0.40
     Davidson diagonalization with overlap

---- Real-time Memory Report at c_bands before calling an iterative solver
           706 MiB given to the printing process from OS
             0 MiB allocation reported by mallinfo(arena+hblkhd)
          5258 MiB available memory on the node where the printing process lives
------------------
     ethr =  8.99E-08,  avg # of iterations =  5.6

     negative rho (up, down):  1.665E-04 0.000E+00

     total cpu time spent up to now is       90.5 secs

     total energy              =    -503.01992598 Ry
     estimated scf accuracy    <       0.00002093 Ry

     iteration # 10     ecut=    50.00 Ry     beta= 0.40
     Davidson diagonalization with overlap

---- Real-time Memory Report at c_bands before calling an iterative solver
           708 MiB given to the printing process from OS
             0 MiB allocation reported by mallinfo(arena+hblkhd)
          5256 MiB available memory on the node where the printing process lives
------------------
     ethr =  8.05E-08,  avg # of iterations =  3.0

     negative rho (up, down):  1.737E-04 0.000E+00

     total cpu time spent up to now is      100.3 secs

     total energy              =    -503.01992711 Ry
     estimated scf accuracy    <       0.00000071 Ry

     iteration # 11     ecut=    50.00 Ry     beta= 0.40
     Davidson diagonalization with overlap

---- Real-time Memory Report at c_bands before calling an iterative solver
           708 MiB given to the printing process from OS
             0 MiB allocation reported by mallinfo(arena+hblkhd)
          5256 MiB available memory on the node where the printing process lives
------------------
     ethr =  2.75E-09,  avg # of iterations =  2.0

     negative rho (up, down):  1.720E-04 0.000E+00

     total cpu time spent up to now is      110.1 secs

     total energy              =    -503.01992719 Ry
     estimated scf accuracy    <       0.00000004 Ry

     iteration # 12     ecut=    50.00 Ry     beta= 0.40
     Davidson diagonalization with overlap

---- Real-time Memory Report at c_bands before calling an iterative solver
           708 MiB given to the printing process from OS
             0 MiB allocation reported by mallinfo(arena+hblkhd)
          5257 MiB available memory on the node where the printing process lives
------------------
     ethr =  1.45E-10,  avg # of iterations =  2.0

     negative rho (up, down):  1.726E-04 0.000E+00

     total cpu time spent up to now is      121.4 secs

     total energy              =    -503.01992719 Ry
     estimated scf accuracy    <       0.00000002 Ry

     iteration # 13     ecut=    50.00 Ry     beta= 0.40
     Davidson diagonalization with overlap

---- Real-time Memory Report at c_bands before calling an iterative solver
           709 MiB given to the printing process from OS
             0 MiB allocation reported by mallinfo(arena+hblkhd)
          5257 MiB available memory on the node where the printing process lives
------------------
     ethr =  5.79E-11,  avg # of iterations =  1.3

     negative rho (up, down):  1.735E-04 0.000E+00

     total cpu time spent up to now is      129.8 secs

     End of self-consistent calculation

          k = 0.0000 0.0000 0.0000 (  7831 PWs)   bands (ev):

  -129.9051 -84.0659 -84.0659 -84.0641 -21.4254 -11.4675 -11.4363 -10.6413
   -10.6413 -10.4561  -9.3948  -5.2352  -4.5061  -4.5061  -0.7849   0.7631
     1.5263

     occupation numbers 
     1.0000   1.0000   1.0000   1.0000   1.0000   1.0000   1.0000   1.0000
     1.0000   1.0000   1.0000   1.0000   0.6444   0.6444   0.0000   0.0000
     0.0000

          k = 0.0000 0.0833 0.0000 (  7841 PWs)   bands (ev):

  -129.9051 -84.0671 -84.0659 -84.0641 -21.3785 -11.4410 -11.3793 -10.6740
   -10.6366 -10.4792  -9.3240  -5.1652  -4.7993  -4.4795  -0.6114   0.9289
     1.6900

     occupation numbers 
     1.0000   1.0000   1.0000   1.0000   1.0000   1.0000   1.0000   1.0000
     1.0000   1.0000   1.0000   1.0001   1.0599   0.5442   0.0000   0.0000
     0.0000

          k = 0.0000 0.1667 0.0000 (  7857 PWs)   bands (ev):

  -129.9049 -84.0702 -84.0657 -84.0638 -21.2473 -11.4200 -11.1824 -10.7520
   -10.6262 -10.5392  -9.1160  -5.5288  -4.9207  -4.4072  -0.1518   1.3944
     2.1584

     occupation numbers 
     1.0000   1.0000   1.0000   1.0000   1.0000   1.0000   1.0000   1.0000
     1.0000   1.0000   1.0000   1.0000   1.0142   0.2965   0.0000   0.0000
     0.0000

          k = 0.0000 0.2500 0.0000 (  7881 PWs)   bands (ev):

  -129.9046 -84.0744 -84.0654 -84.0635 -21.0595 -11.4010 -10.9417 -10.8354
   -10.6475 -10.5833  -8.7863  -6.2938  -4.5921  -4.3092   0.5391   2.1233
     2.8957

     occupation numbers 
     1.0000   1.0000   1.0000   1.0000   1.0000   1.0000   1.0000   1.0000
     1.0000   1.0000   1.0000   1.0000   0.9285   0.0900   0.0000   0.0000
     0.0000

          k = 0.0000 0.3333 0.0000 (  7882 PWs)   bands (ev):

  -129.9043 -84.0786 -84.0651 -84.0631 -20.8605 -11.3914 -10.8973 -10.7555
   -10.7219 -10.5720  -8.4388  -6.8098  -4.2119  -4.1759   1.1284   1.4671
     3.1082

     occupation numbers 
     1.0000   1.0000   1.0000   1.0000   1.0000   1.0000   1.0000   1.0000
     1.0000   1.0000   1.0000   1.0000   0.0177   0.0087   0.0000   0.0000
     0.0000

          k = 0.0000 0.4167 0.0000 (  7900 PWs)   bands (ev):

  -129.9041 -84.0818 -84.0649 -84.0629 -20.7065 -11.3902 -10.9261 -10.7799
   -10.6738 -10.5588  -8.3197  -6.8348  -4.1410  -3.6875  -0.5955   2.6025
     4.3218

     occupation numbers 
     1.0000   1.0000   1.0000   1.0000   1.0000   1.0000   1.0000   1.0000
     1.0000   1.0000   1.0000   1.0000   0.0041   0.0000   0.0000   0.0000
     0.0000

          k = 0.0000-0.5000 0.0000 (  7920 PWs)   bands (ev):

  -129.9040 -84.0829 -84.0648 -84.0629 -20.6482 -11.3905 -10.9336 -10.8011
   -10.6584 -10.5537  -8.3387  -6.7191  -4.1151  -3.3389  -1.4167   3.6734
     4.3557

     occupation numbers 
     1.0000   1.0000   1.0000   1.0000   1.0000   1.0000   1.0000   1.0000
     1.0000   1.0000   1.0000   1.0000   0.0022   0.0000   0.0000   0.0000
     0.0000

          k = 0.0833 0.0833 0.0000 (  7870 PWs)   bands (ev):

  -129.9050 -84.0670 -84.0670 -84.0640 -21.3323 -11.3807 -11.3576 -10.6708
   -10.6657 -10.5048  -9.2541  -5.1086  -4.8357  -4.6740  -0.4472   1.0894
     1.8501

     occupation numbers 
     1.0000   1.0000   1.0000   1.0000   1.0000   1.0000   1.0000   1.0000
     1.0000   1.0000   1.0000   1.0003   1.0430   1.0658   0.0000   0.0000
     0.0000

          k = 0.0833 0.1667 0.0000 (  7854 PWs)   bands (ev):

  -129.9048 -84.0701 -84.0668 -84.0637 -21.2026 -11.3548 -11.1703 -10.7466
   -10.6531 -10.5706  -9.0486  -5.5004  -4.8525  -4.6310  -0.0022   1.5452
     2.3104

     occupation numbers 
     1.0000   1.0000   1.0000   1.0000   1.0000   1.0000   1.0000   1.0000
     1.0000   1.0000   1.0000   1.0000   1.0358   1.0126   0.0000   0.0000
     0.0000

          k = 0.0833 0.2500 0.0000 (  7876 PWs)   bands (ev):

  -129.9045 -84.0743 -84.0665 -84.0634 -21.0171 -11.3340 -10.9393 -10.8342
   -10.6644 -10.6225  -8.7229  -6.2269  -4.6191  -4.4246   0.6770   2.2662
     3.0404

     occupation numbers 
     1.0000   1.0000   1.0000   1.0000   1.0000   1.0000   1.0000   1.0000
     1.0000   1.0000   1.0000   1.0000   0.9905   0.3503   0.0000   0.0000
     0.0000

          k = 0.0833 0.3333 0.0000 (  7864 PWs)   bands (ev):

  -129.9042 -84.0785 -84.0662 -84.0631 -20.8206 -11.3219 -10.9035 -10.7951
   -10.7054 -10.6089  -8.3799  -6.7175  -4.4654  -4.0448   1.2452   1.6020
     3.2439

     occupation numbers 
     1.0000   1.0000   1.0000   1.0000   1.0000   1.0000   1.0000   1.0000
     1.0000   1.0000   1.0000   1.0000   0.4917   0.0004   0.0000   0.0000
     0.0000

          k = 0.0833 0.4167 0.0000 (  7894 PWs)   bands (ev):

  -129.9040 -84.0817 -84.0660 -84.0628 -20.6687 -11.3178 -10.9484 -10.8068
   -10.6692 -10.5915  -8.2534  -6.7402  -4.3687  -3.5655  -0.4690   2.7187
     4.4448

     occupation numbers 
     1.0000   1.0000   1.0000   1.0000   1.0000   1.0000   1.0000   1.0000
     1.0000   1.0000   1.0000   1.0000   0.1954   0.0000   0.0000   0.0000
     0.0000

          k = 0.0833-0.5000 0.0000 (  7904 PWs)   bands (ev):

  -129.9039 -84.0828 -84.0659 -84.0628 -20.6112 -11.3165 -10.9661 -10.8152
   -10.6664 -10.5809  -8.2651  -6.6301  -4.3336  -3.2210  -1.2863   3.7538
     4.4939

     occupation numbers 
     1.0000   1.0000   1.0000   1.0000   1.0000   1.0000   1.0000   1.0000
     1.0000   1.0000   1.0000   1.0000   0.1261   0.0000   0.0000   0.0000
     0.0000

          k = 0.1667 0.1667 0.0000 (  7864 PWs)   bands (ev):

  -129.9046 -84.0700 -84.0698 -84.0635 -21.0774 -11.2175 -11.1075 -10.7527
   -10.7078 -10.6437  -8.8497  -5.5358  -5.1185  -4.5880   0.4171   1.9820
     2.7517

     occupation numbers 
     1.0000   1.0000   1.0000   1.0000   1.0000   1.0000   1.0000   1.0000
     1.0000   1.0000   1.0000   1.0000   1.0002   0.9178   0.0000   0.0000
     0.0000

          k = 0.1667 0.2500 0.0000 (  7859 PWs)   bands (ev):

  -129.9043 -84.0741 -84.0696 -84.0632 -20.8984 -11.1607 -10.9399 -10.8369
   -10.7239 -10.6928  -8.5365  -6.0467  -5.1227  -4.2336   1.0710   2.6835
     3.4587

     occupation numbers 
     1.0000   1.0000   1.0000   1.0000   1.0000   1.0000   1.0000   1.0000
     1.0000   1.0000   1.0000   1.0000   1.0002   0.0264   0.0000   0.0000
     0.0000

          k = 0.1667 0.3333 0.0000 (  7846 PWs)   bands (ev):

  -129.9040 -84.0783 -84.0693 -84.0628 -20.7091 -11.1409 -10.9386 -10.8590
   -10.6978 -10.6845  -8.2063  -6.4733  -4.9887  -3.7823   1.5658   1.9879
     3.6424

     occupation numbers 
     1.0000   1.0000   1.0000   1.0000   1.0000   1.0000   1.0000   1.0000
     1.0000   1.0000   1.0000   1.0000   1.0043   0.0000   0.0000   0.0000
     0.0000

          k = 0.1667 0.4167 0.0000 (  7870 PWs)   bands (ev):

  -129.9038 -84.0814 -84.0690 -84.0626 -20.5630 -11.1294 -11.0154 -10.8584
   -10.7222 -10.6117  -8.0619  -6.5024  -4.8800  -3.2510  -0.1293   3.0481
     4.7967

     occupation numbers 
     1.0000   1.0000   1.0000   1.0000   1.0000   1.0000   1.0000   1.0000
     1.0000   1.0000   1.0000   1.0000   1.0255   0.0000   0.0000   0.0000
     0.0000

          k = 0.1667-0.5000 0.0000 (  7874 PWs)   bands (ev):

  -129.9037 -84.0825 -84.0689 -84.0625 -20.5078 -11.1176 -11.0545 -10.8502
   -10.7438 -10.5880  -8.0565  -6.4121  -4.8391  -2.8736  -0.9550   3.9716
     4.8927

     occupation numbers 
     1.0000   1.0000   1.0000   1.0000   1.0000   1.0000   1.0000   1.0000
     1.0000   1.0000   1.0000   1.0000   1.0415   0.0000   0.0000   0.0000
     0.0000

          k = 0.2500 0.2500 0.0000 (  7842 PWs)   bands (ev):

  -129.9040 -84.0738 -84.0736 -84.0629 -20.7291 -10.9766 -10.9753 -10.8523
   -10.7865 -10.7203  -8.2453  -5.8383  -5.7046  -3.8642   1.6906   3.3559
     3.6925

     occupation numbers 
     1.0000   1.0000   1.0000   1.0000   1.0000   1.0000   1.0000   1.0000
     1.0000   1.0000   1.0000   1.0000   1.0000   0.0000   0.0000   0.0000
     0.0000

          k = 0.2500 0.3333 0.0000 (  7834 PWs)   bands (ev):

  -129.9037 -84.0779 -84.0734 -84.0625 -20.5503 -11.0597 -10.9458 -10.8533
   -10.7698 -10.6726  -7.9327  -6.1962  -5.5392  -3.3706   2.0220   2.5595
     4.2616

     occupation numbers 
     1.0000   1.0000   1.0000   1.0000   1.0000   1.0000   1.0000   1.0000
     1.0000   1.0000   1.0000   1.0000   1.0000   0.0000   0.0000   0.0000
     0.0000

          k = 0.2500 0.4167 0.0000 (  7841 PWs)   bands (ev):

  -129.9035 -84.0810 -84.0732 -84.0623 -20.4126 -11.1339 -10.9511 -10.8657
   -10.7985 -10.5790  -7.7662  -6.3017  -5.3514  -2.7604   0.3634   3.5204
     5.2708

     occupation numbers 
     1.0000   1.0000   1.0000   1.0000   1.0000   1.0000   1.0000   1.0000
     1.0000   1.0000   1.0000   1.0000   1.0000   0.0000   0.0000   0.0000
     0.0000

          k = 0.2500-0.5000 0.0000 (  7850 PWs)   bands (ev):

  -129.9034 -84.0822 -84.0731 -84.0622 -20.3607 -11.1615 -10.9264 -10.9071
   -10.8053 -10.5469  -7.7421  -6.2651  -5.2789  -2.3107  -0.4919   4.2332
     5.4945

     occupation numbers 
     1.0000   1.0000   1.0000   1.0000   1.0000   1.0000   1.0000   1.0000
     1.0000   1.0000   1.0000   1.0000   1.0000   0.0000   0.0000   0.0000
     0.0000

          k = 0.3333 0.3333 0.0000 (  7832 PWs)   bands (ev):

  -129.9034 -84.0777 -84.0775 -84.0622 -20.3830 -11.1484 -11.0102 -10.8502
   -10.6641 -10.6258  -7.6198  -6.2897  -5.5901  -2.8083   2.1730   3.0829
     3.9574

     occupation numbers 
     1.0000   1.0000   1.0000   1.0000   1.0000   1.0000   1.0000   1.0000
     1.0000   1.0000   1.0000   1.0000   1.0000   0.0000   0.0000   0.0000
     0.0000

          k = 0.3333 0.4167 0.0000 (  7838 PWs)   bands (ev):

  -129.9032 -84.0807 -84.0773 -84.0619 -20.2546 -11.2181 -11.0393 -10.9311
   -10.6456 -10.4855  -7.4146  -6.4753  -5.3620  -2.0931   0.9384   3.5912
     4.4066

     occupation numbers 
     1.0000   1.0000   1.0000   1.0000   1.0000   1.0000   1.0000   1.0000
     1.0000   1.0000   1.0000   1.0000   1.0000   0.0000   0.0000   0.0000
     0.0000

          k = 0.3333-0.5000 0.0000 (  7856 PWs)   bands (ev):

  -129.9032 -84.0818 -84.0773 -84.0619 -20.2062 -11.2434 -11.0230 -10.9906
   -10.6402 -10.4363  -7.3725  -6.4948  -5.2633  -1.5428   0.0679   3.9188
     4.7913

     occupation numbers 
     1.0000   1.0000   1.0000   1.0000   1.0000   1.0000   1.0000   1.0000
     1.0000   1.0000   1.0000   1.0000   1.0000   0.0000   0.0000   0.0000
     0.0000

          k = 0.4167 0.4167 0.0000 (  7842 PWs)   bands (ev):

  -129.9030 -84.0804 -84.0804 -84.0617 -20.1334 -11.2635 -11.1028 -11.0257
   -10.5925 -10.3385  -7.1258  -6.7412  -5.1628  -1.2511   1.2234   2.3495
     4.6042

     occupation numbers 
     1.0000   1.0000   1.0000   1.0000   1.0000   1.0000   1.0000   1.0000
     1.0000   1.0000   1.0000   1.0000   1.0001   0.0000   0.0000   0.0000
     0.0000

          k = 0.4167-0.5000 0.0000 (  7830 PWs)   bands (ev):

  -129.9030 -84.0815 -84.0803 -84.0616 -20.0877 -11.2746 -11.1077 -11.0858
   -10.5809 -10.2789  -7.0505  -6.8004  -5.0737  -0.5634   0.6276   2.2437
     4.7186

     occupation numbers 
     1.0000   1.0000   1.0000   1.0000   1.0000   1.0000   1.0000   1.0000
     1.0000   1.0000   1.0000   1.0000   1.0007   0.0000   0.0000   0.0000
     0.0000

          k =-0.5000-0.5000 0.0000 (  7904 PWs)   bands (ev):

  -129.9029 -84.0815 -84.0815 -84.0616 -20.0432 -11.2703 -11.1381 -11.1381
   -10.5675 -10.2141  -6.9183  -6.9183  -4.9903   0.4892   0.8994   0.8994
     4.7090

     occupation numbers 
     1.0000   1.0000   1.0000   1.0000   1.0000   1.0000   1.0000   1.0000
     1.0000   1.0000   1.0000   1.0000   1.0042   0.0000   0.0000   0.0000
     0.0000

     the Fermi energy is    -4.4398 ev

!    total energy              =    -503.01992719 Ry
     estimated scf accuracy    <          1.3E-09 Ry
     smearing contrib. (-TS)   =      -0.00033919 Ry
     internal energy E=F+TS    =    -503.01958800 Ry

     The total energy is F=E-TS. E is the sum of the following terms:
     one-electron contribution =   -2702.39231909 Ry
     hartree contribution      =    1348.23812466 Ry
     xc contribution           =     -49.29137932 Ry
     ewald contribution        =     909.97652968 Ry
     one-center paw contrib.   =      -9.55054394 Ry
      -> PAW hartree energy AE =      23.39597970 Ry
      -> PAW hartree energy PS =     -23.29879552 Ry
      -> PAW xc energy AE      =     -16.25042056 Ry
      -> PAW xc energy PS      =       6.60269245 Ry
      -> total E_H with PAW    =    1348.33530884 Ry
      -> total E_XC with PAW   =     -58.93910743 Ry

     convergence has been achieved in  13 iterations

     negative rho (up, down):  1.735E-04 0.000E+00

     Forces acting on atoms (cartesian axes, Ry/au):

     atom    1 type  2   force =     0.00000000    0.00000000    0.11868110
     atom    2 type  1   force =     0.00000000    0.00000000   -0.11868110
     The non-local contrib.  to forces
     atom    1 type  2   force =     0.00000000    0.00000000   -0.86879390
     atom    2 type  1   force =     0.00000000    0.00000000   -0.90858904
     The ionic contribution  to forces
     atom    1 type  2   force =    -0.00000000   -0.00000000  -45.16823895
     atom    2 type  1   force =     0.00000000    0.00000000   45.16823895
     The local contribution  to forces
     atom    1 type  2   force =     0.00000000    0.00000000   46.15593385
     atom    2 type  1   force =     0.00000000    0.00000000  -44.38839214
     The core correction contribution to forces
     atom    1 type  2   force =     0.00000000    0.00000000    0.00000000
     atom    2 type  1   force =     0.00000000   -0.00000000    0.01004134
     The Hubbard contrib.    to forces
     atom    1 type  2   force =     0.00000000    0.00000000    0.00000000
     atom    2 type  1   force =     0.00000000    0.00000000    0.00000000
     The SCF correction term to forces
     atom    1 type  2   force =     0.00000000   -0.00000000   -0.00028352
     atom    2 type  1   force =     0.00000000   -0.00000000   -0.00004383

     Total force =     0.167840     Total SCF correction =     0.000287


     Computing stress (Cartesian axis) and pressure


     negative rho (up, down):  1.735E-04 0.000E+00
          total   stress  (Ry/bohr**3)                   (kbar)     P=      -20.33
  -0.00008973   0.00000000   0.00000000          -13.20        0.00        0.00
   0.00000000  -0.00008973   0.00000000            0.00      -13.20        0.00
   0.00000000   0.00000000  -0.00023508            0.00        0.00      -34.58

     kinetic stress (kbar)   4194.52      0.00      0.00
                                0.00   4194.52      0.00
                                0.00      0.00   4200.49

     local   stress (kbar)-260161.02      0.00      0.00
                                0.00-260161.02     -0.00
                                0.00     -0.00 260790.58

     nonloc. stress (kbar)    -69.86      0.00      0.00
                                0.00    -69.86      0.00
                                0.00      0.00    -75.29

     hartree stress (kbar) 136003.60     -0.00     -0.00
                               -0.00 136003.60     -0.00
                               -0.00     -0.00-121331.86

     exc-cor stress (kbar)  -1710.20     -0.00     -0.00
                               -0.00  -1710.20     -0.00
                               -0.00     -0.00  -1713.36

     corecor stress (kbar)    -47.37     -0.00      0.00
                               -0.00    -47.37     -0.00
                                0.00     -0.00    -47.33

     ewald   stress (kbar) 121777.13      0.00      0.00
                                0.00 121777.13      0.00
                                0.00      0.00-141857.81

     hubbard stress (kbar)      0.00      0.00      0.00
                                0.00      0.00      0.00
                                0.00      0.00      0.00

     DFT-D   stress (kbar)      0.00      0.00      0.00
                                0.00      0.00      0.00
                                0.00      0.00      0.00

     XDM     stress (kbar)      0.00      0.00      0.00
                                0.00      0.00      0.00
                                0.00      0.00      0.00

     dft-nl  stress (kbar)      0.00      0.00      0.00
                                0.00      0.00      0.00
                                0.00      0.00      0.00

     TS-vdW  stress (kbar)      0.00      0.00      0.00
                                0.00      0.00      0.00
                                0.00      0.00      0.00

     MDB     stress (kbar)      0.00      0.00      0.00
                                0.00      0.00      0.00
                                0.00      0.00      0.00

     3D-RISM stress (kbar)      0.00      0.00      0.00
                                0.00      0.00      0.00
                                0.00      0.00      0.00


     Writing all to output data dir ./temp_cubic/aiida.save/ :
     XML data file, charge density, pseudopotentials, collected wavefunctions

     init_run     :     64.30s CPU      3.47s WALL (       1 calls)
     electrons    :   2516.93s CPU    126.00s WALL (       1 calls)
     forces       :     20.18s CPU      1.27s WALL (       1 calls)
     stress       :     21.93s CPU      3.64s WALL (       1 calls)

     Called by init_run:
     wfcinit      :     59.77s CPU      2.67s WALL (       1 calls)
     wfcinit:atom :      0.93s CPU      0.05s WALL (      28 calls)
     wfcinit:wfcr :     55.55s CPU      2.43s WALL (      28 calls)
     potinit      :      1.50s CPU      0.13s WALL (       1 calls)
     hinit0       :      1.14s CPU      0.23s WALL (       1 calls)

     Called by electrons:
     c_bands      :   2041.72s CPU     95.94s WALL (      13 calls)
     sum_band     :    431.07s CPU     23.44s WALL (      13 calls)
     v_of_rho     :     13.81s CPU      1.10s WALL (      14 calls)
     v_h          :      2.20s CPU      0.16s WALL (      14 calls)
     v_xc         :     13.17s CPU      1.06s WALL (      16 calls)
     newd         :     18.32s CPU      5.14s WALL (      14 calls)
     PAW_pot      :      5.85s CPU      0.27s WALL (      14 calls)
     mix_rho      :      4.86s CPU      0.28s WALL (      13 calls)

     Called by c_bands:
     init_us_2    :     28.04s CPU      1.55s WALL (     812 calls)
     cegterg      :   2007.74s CPU     94.09s WALL (     364 calls)

     Called by sum_band:
     sum_band:wei :      0.00s CPU      0.00s WALL (      13 calls)
     sum_band:loo :    418.66s CPU     17.57s WALL (      13 calls)
     sum_band:buf :      1.74s CPU      0.09s WALL (     364 calls)
     sum_band:ini :     16.54s CPU      0.70s WALL (     364 calls)
     sum_band:cal :     55.30s CPU      2.04s WALL (     364 calls)
     sum_band:bec :     10.94s CPU      0.56s WALL (     364 calls)
     addusdens    :     10.75s CPU      5.62s WALL (      13 calls)
                                        0.00s GPU  (      13 calls)
     addusd:skk   :      0.23s CPU      0.01s WALL (      26 calls)
                                        0.00s GPU  (      26 calls)

     Called by *egterg:
     cdiaghg      :      6.51s CPU      0.41s WALL (    1736 calls)
     cegterg:over :    122.07s CPU      5.53s WALL (    1372 calls)
     cegterg:upda :     61.23s CPU      4.59s WALL (    1372 calls)
     cegterg:last :     45.45s CPU      6.38s WALL (     697 calls)
     h_psi        :   1614.99s CPU     69.09s WALL (    1764 calls)
     s_psi        :     97.56s CPU      4.97s WALL (    1764 calls)
     g_psi        :     16.66s CPU      0.84s WALL (    1372 calls)

     Called by h_psi:
     h_psi:calbec :    131.76s CPU      5.00s WALL (    1764 calls)
     vloc_psi     :   1352.00s CPU     58.25s WALL (    1764 calls)
     add_vuspsi   :    106.72s CPU      4.70s WALL (    1764 calls)

     General routines
     calbec       :    203.65s CPU      7.70s WALL (    2268 calls)
     fft          :     14.10s CPU      1.03s WALL (     205 calls)
     ffts         :      1.40s CPU      0.05s WALL (      27 calls)
     fftw         :    890.12s CPU     38.24s WALL (   36688 calls)
     interpolate  :      3.13s CPU      0.13s WALL (      14 calls)

     Parallel routines

     PAW routines
     PAW_pot      :      5.85s CPU      0.27s WALL (      14 calls)
     PAW_symme    :      0.23s CPU      0.00s WALL (      27 calls)

     PWSCF        :  43m52.90s CPU   2m15.66s WALL


   This run was terminated on:  21:11:23  14Jun2024            

=------------------------------------------------------------------------------=
   JOB DONE.
=------------------------------------------------------------------------------=
