
     Program PWSCF v.7.3.1 starts on 14Jun2024 at 21: 0:21 

     This program is part of the open-source Quantum ESPRESSO suite
     for quantum simulation of materials; please cite
         "P. Giannozzi et al., J. Phys.:Condens. Matter 21 395502 (2009);
         "P. Giannozzi et al., J. Phys.:Condens. Matter 29 465901 (2017);
         "P. Giannozzi et al., J. Chem. Phys. 152 154105 (2020);
          URL http://www.quantum-espresso.org", 
     in publications or presentations arising from this work. More details at
     http://www.quantum-espresso.org/quote

     Parallel version (MPI & OpenMP), running on      24 processor cores
     Number of MPI processes:                 1
     Threads/MPI process:                    24

     MPI processes distributed on     1 nodes
     5443 MiB available memory on the printing compute node when the environment starts

     Waiting for input...
     Reading input from standard input

     Current dimensions of program PWSCF are:
     Max number of different atomic species (ntypx) = 10
     Max number of k-points (npk) =  40000
     Max angular momentum in pseudopotentials (lmaxx) =  4
     file O.pbe-n-kjpaw_psl.0.1.UPF: wavefunction(s)  2P renormalized
     Message from routine setup:
     using ibrav=0 with symmetry is DISCOURAGED, use correct ibrav instead

     Subspace diagonalization in iterative solution of the eigenvalue problem:
     a serial algorithm will be used


     G-vector sticks info
     --------------------
     sticks:   dense  smooth     PW     G-vecs:    dense   smooth      PW
     Sum         829     421    137               177743    63081   11257

     Using Slab Decomposition



     bravais-lattice index     =            0
     lattice parameter (alat)  =       5.0869  a.u.
     unit-cell volume          =    1316.2915 (a.u.)^3
     number of atoms/cell      =            3
     number of atomic types    =            3
     number of electrons       =        27.00
     number of Kohn-Sham states=           18
     kinetic-energy cutoff     =      50.0000  Ry
     charge density cutoff     =     400.0000  Ry
     scf convergence threshold =      1.0E-08
     mixing beta               =       0.4000
     number of iterations used =            8  plain     mixing
     Exchange-correlation= PBE
                           (   1   4   3   4   0   0   0)

     celldm(1)=   5.086871  celldm(2)=   0.000000  celldm(3)=   0.000000
     celldm(4)=   0.000000  celldm(5)=   0.000000  celldm(6)=   0.000000

     crystal axes: (cart. coord. in units of alat)
               a(1) = (   1.000000   0.000000   0.000000 )  
               a(2) = (   0.000000   1.000000   0.000000 )  
               a(3) = (   0.000000   0.000000  10.000000 )  

     reciprocal axes: (cart. coord. in units 2 pi/alat)
               b(1) = (  1.000000  0.000000  0.000000 )  
               b(2) = (  0.000000  1.000000  0.000000 )  
               b(3) = (  0.000000  0.000000  0.100000 )  


     PseudoPot. # 1 for O  read from file:
     ../SSSP_1.3.0_PBE_efficiency/O.pbe-n-kjpaw_psl.0.1.UPF
     MD5 check sum: 0234752ac141de4415c5fc33072bef88
     Pseudo is Projector augmented-wave + core cor, Zval =  6.0
     Generated using "atomic" code by A. Dal Corso  v.5.0.99 svn rev. 10869
     Shape of augmentation charge: BESSEL
     Using radial grid of 1095 points,  4 beta functions with: 
                l(1) =   0
                l(2) =   0
                l(3) =   1
                l(4) =   1
     Q(r) pseudized with 0 coefficients 


     PseudoPot. # 2 for Zn read from file:
     ../SSSP_1.3.0_PBE_efficiency/Zn_pbe_v1.uspp.F.UPF
     MD5 check sum: df62231357ef9e81f77b2b3087fa5675
     Pseudo is Ultrasoft, Zval = 20.0
     Generated by new atomic code, or converted to UPF format
     Using radial grid of  943 points,  6 beta functions with: 
                l(1) =   0
                l(2) =   0
                l(3) =   1
                l(4) =   1
                l(5) =   2
                l(6) =   2
     Q(r) pseudized with  8 coefficients,  rinner =    1.100   1.100   1.100
                                                       1.100   1.100

     PseudoPot. # 3 for H  read from file:
     ../SSSP_1.3.0_PBE_efficiency/H.pbe-rrkjus_psl.1.0.0.UPF
     MD5 check sum: f52b6d4d1c606e5624b1dc7b2218f220
     Pseudo is Ultrasoft, Zval =  1.0
     Generated using "atomic" code by A. Dal Corso  v.5.1
     Using radial grid of  929 points,  2 beta functions with: 
                l(1) =   0
                l(2) =   0
     Q(r) pseudized with 0 coefficients 


     atomic species   valence    mass     pseudopotential
     O                 6.00    15.99940     O ( 1.00)
     Zn               20.00    65.38000     Zn( 1.00)
     H                 1.00     1.00794     H ( 1.00)

      8 Sym. Ops. (no inversion) found


                                    s                        frac. trans.

      isym =  1     identity                                     

 cryst.   s( 1) = (     1          0          0      )
                  (     0          1          0      )
                  (     0          0          1      )

 cart.    s( 1) = (  1.0000000  0.0000000  0.0000000 )
                  (  0.0000000  1.0000000  0.0000000 )
                  (  0.0000000  0.0000000  1.0000000 )


      isym =  2     180 deg rotation - cart. axis [0,0,1]        

 cryst.   s( 2) = (    -1          0          0      )
                  (     0         -1          0      )
                  (     0          0          1      )

 cart.    s( 2) = ( -1.0000000  0.0000000  0.0000000 )
                  (  0.0000000 -1.0000000  0.0000000 )
                  (  0.0000000  0.0000000  1.0000000 )


      isym =  3      90 deg rotation - cart. axis [0,0,-1]       

 cryst.   s( 3) = (     0         -1          0      )
                  (     1          0          0      )
                  (     0          0          1      )

 cart.    s( 3) = (  0.0000000  1.0000000  0.0000000 )
                  ( -1.0000000  0.0000000  0.0000000 )
                  (  0.0000000  0.0000000  1.0000000 )


      isym =  4      90 deg rotation - cart. axis [0,0,1]        

 cryst.   s( 4) = (     0          1          0      )
                  (    -1          0          0      )
                  (     0          0          1      )

 cart.    s( 4) = (  0.0000000 -1.0000000  0.0000000 )
                  (  1.0000000  0.0000000  0.0000000 )
                  (  0.0000000  0.0000000  1.0000000 )


      isym =  5     inv. 180 deg rotation - cart. axis [0,1,0]   

 cryst.   s( 5) = (     1          0          0      )
                  (     0         -1          0      )
                  (     0          0          1      )

 cart.    s( 5) = (  1.0000000  0.0000000  0.0000000 )
                  (  0.0000000 -1.0000000  0.0000000 )
                  (  0.0000000  0.0000000  1.0000000 )


      isym =  6     inv. 180 deg rotation - cart. axis [1,0,0]   

 cryst.   s( 6) = (    -1          0          0      )
                  (     0          1          0      )
                  (     0          0          1      )

 cart.    s( 6) = ( -1.0000000  0.0000000  0.0000000 )
                  (  0.0000000  1.0000000  0.0000000 )
                  (  0.0000000  0.0000000  1.0000000 )


      isym =  7     inv. 180 deg rotation - cart. axis [1,1,0]   

 cryst.   s( 7) = (     0         -1          0      )
                  (    -1          0          0      )
                  (     0          0          1      )

 cart.    s( 7) = (  0.0000000 -1.0000000  0.0000000 )
                  ( -1.0000000  0.0000000  0.0000000 )
                  (  0.0000000  0.0000000  1.0000000 )


      isym =  8     inv. 180 deg rotation - cart. axis [1,-1,0]  

 cryst.   s( 8) = (     0          1          0      )
                  (     1          0          0      )
                  (     0          0          1      )

 cart.    s( 8) = (  0.0000000  1.0000000  0.0000000 )
                  (  1.0000000  0.0000000  0.0000000 )
                  (  0.0000000  0.0000000  1.0000000 )


   Cartesian axes

     site n.     atom                  positions (alat units)
         1        Zn     tau(   1) = (   0.0000000   0.0000000   0.0000000  )
         2        O      tau(   2) = (   0.5000000   0.5000000   0.5000000  )
         3        H      tau(   3) = (   0.5000000   0.5000000   0.8500000  )

   Crystallographic axes

     site n.     atom                  positions (cryst. coord.)
         1        Zn     tau(   1) = (  0.0000000  0.0000000  0.0000000  )
         2        O      tau(   2) = (  0.5000000  0.5000000  0.0500000  )
         3        H      tau(   3) = (  0.5000000  0.5000000  0.0850000  )

     number of k points=    28  Marzari-Vanderbilt smearing, width (Ry)=  0.0147
                       cart. coord. in units 2pi/alat
        k(    1) = (   0.0000000   0.0000000   0.0000000), wk =   0.0138889
        k(    2) = (   0.0000000   0.0833333   0.0000000), wk =   0.0555556
        k(    3) = (   0.0000000   0.1666667   0.0000000), wk =   0.0555556
        k(    4) = (   0.0000000   0.2500000   0.0000000), wk =   0.0555556
        k(    5) = (   0.0000000   0.3333333   0.0000000), wk =   0.0555556
        k(    6) = (   0.0000000   0.4166667   0.0000000), wk =   0.0555556
        k(    7) = (   0.0000000  -0.5000000   0.0000000), wk =   0.0277778
        k(    8) = (   0.0833333   0.0833333   0.0000000), wk =   0.0555556
        k(    9) = (   0.0833333   0.1666667   0.0000000), wk =   0.1111111
        k(   10) = (   0.0833333   0.2500000   0.0000000), wk =   0.1111111
        k(   11) = (   0.0833333   0.3333333   0.0000000), wk =   0.1111111
        k(   12) = (   0.0833333   0.4166667   0.0000000), wk =   0.1111111
        k(   13) = (   0.0833333  -0.5000000   0.0000000), wk =   0.0555556
        k(   14) = (   0.1666667   0.1666667   0.0000000), wk =   0.0555556
        k(   15) = (   0.1666667   0.2500000   0.0000000), wk =   0.1111111
        k(   16) = (   0.1666667   0.3333333   0.0000000), wk =   0.1111111
        k(   17) = (   0.1666667   0.4166667   0.0000000), wk =   0.1111111
        k(   18) = (   0.1666667  -0.5000000   0.0000000), wk =   0.0555556
        k(   19) = (   0.2500000   0.2500000   0.0000000), wk =   0.0555556
        k(   20) = (   0.2500000   0.3333333   0.0000000), wk =   0.1111111
        k(   21) = (   0.2500000   0.4166667   0.0000000), wk =   0.1111111
        k(   22) = (   0.2500000  -0.5000000   0.0000000), wk =   0.0555556
        k(   23) = (   0.3333333   0.3333333   0.0000000), wk =   0.0555556
        k(   24) = (   0.3333333   0.4166667   0.0000000), wk =   0.1111111
        k(   25) = (   0.3333333  -0.5000000   0.0000000), wk =   0.0555556
        k(   26) = (   0.4166667   0.4166667   0.0000000), wk =   0.0555556
        k(   27) = (   0.4166667  -0.5000000   0.0000000), wk =   0.0555556
        k(   28) = (  -0.5000000  -0.5000000   0.0000000), wk =   0.0138889

                       cryst. coord.
        k(    1) = (   0.0000000   0.0000000   0.0000000), wk =   0.0138889
        k(    2) = (   0.0000000   0.0833333   0.0000000), wk =   0.0555556
        k(    3) = (   0.0000000   0.1666667   0.0000000), wk =   0.0555556
        k(    4) = (   0.0000000   0.2500000   0.0000000), wk =   0.0555556
        k(    5) = (   0.0000000   0.3333333   0.0000000), wk =   0.0555556
        k(    6) = (   0.0000000   0.4166667   0.0000000), wk =   0.0555556
        k(    7) = (   0.0000000  -0.5000000   0.0000000), wk =   0.0277778
        k(    8) = (   0.0833333   0.0833333   0.0000000), wk =   0.0555556
        k(    9) = (   0.0833333   0.1666667   0.0000000), wk =   0.1111111
        k(   10) = (   0.0833333   0.2500000   0.0000000), wk =   0.1111111
        k(   11) = (   0.0833333   0.3333333   0.0000000), wk =   0.1111111
        k(   12) = (   0.0833333   0.4166667   0.0000000), wk =   0.1111111
        k(   13) = (   0.0833333  -0.5000000   0.0000000), wk =   0.0555556
        k(   14) = (   0.1666667   0.1666667   0.0000000), wk =   0.0555556
        k(   15) = (   0.1666667   0.2500000   0.0000000), wk =   0.1111111
        k(   16) = (   0.1666667   0.3333333   0.0000000), wk =   0.1111111
        k(   17) = (   0.1666667   0.4166667   0.0000000), wk =   0.1111111
        k(   18) = (   0.1666667  -0.5000000   0.0000000), wk =   0.0555556
        k(   19) = (   0.2500000   0.2500000   0.0000000), wk =   0.0555556
        k(   20) = (   0.2500000   0.3333333   0.0000000), wk =   0.1111111
        k(   21) = (   0.2500000   0.4166667   0.0000000), wk =   0.1111111
        k(   22) = (   0.2500000  -0.5000000   0.0000000), wk =   0.0555556
        k(   23) = (   0.3333333   0.3333333   0.0000000), wk =   0.0555556
        k(   24) = (   0.3333333   0.4166667   0.0000000), wk =   0.1111111
        k(   25) = (   0.3333333  -0.5000000   0.0000000), wk =   0.0555556
        k(   26) = (   0.4166667   0.4166667   0.0000000), wk =   0.0555556
        k(   27) = (   0.4166667  -0.5000000   0.0000000), wk =   0.0555556
        k(   28) = (  -0.5000000  -0.5000000   0.0000000), wk =   0.0138889

     Dense  grid:   177743 G-vectors     FFT dimensions: (  36,  36, 324)

     Smooth grid:    63081 G-vectors     FFT dimensions: (  24,  24, 240)

     Dynamical RAM for                 wfc:       2.16 MB

     Dynamical RAM for     wfc (w. buffer):      62.60 MB

     Dynamical RAM for           str. fact:       8.14 MB

     Dynamical RAM for           local pot:       0.00 MB

     Dynamical RAM for          nlocal pot:       3.36 MB

     Dynamical RAM for                qrad:       4.82 MB

     Dynamical RAM for          rho,v,vnew:      17.75 MB

     Dynamical RAM for               rhoin:       5.92 MB

     Dynamical RAM for            rho*nmix:      43.39 MB

     Dynamical RAM for           G-vectors:      10.65 MB

     Dynamical RAM for          h,s,v(r/c):       0.06 MB

     Dynamical RAM for          <psi|beta>:       0.01 MB

     Dynamical RAM for                 psi:       4.32 MB

     Dynamical RAM for                hpsi:       4.32 MB

     Dynamical RAM for                spsi:       4.32 MB

     Dynamical RAM for      wfcinit/wfcrot:       4.32 MB

     Dynamical RAM for           addusdens:     507.17 MB

     Dynamical RAM for          addusforce:     508.53 MB

     Dynamical RAM for         addusstress:     545.14 MB

     Estimated static dynamical RAM per process >     140.09 MB

     Estimated max dynamical RAM per process >     728.62 MB

     Initial potential from superposition of free atoms

     starting charge      26.9998, renormalised to      27.0000

     negative rho (up, down):  1.396E-04 0.000E+00
     Starting wfcs are   18 randomized atomic wfcs
     Checking if some PAW data can be deallocated... 

     total cpu time spent up to now is        3.5 secs

     Self-consistent Calculation

     iteration #  1     ecut=    50.00 Ry     beta= 0.40
     Davidson diagonalization with overlap

---- Real-time Memory Report at c_bands before calling an iterative solver
           608 MiB given to the printing process from OS
             0 MiB allocation reported by mallinfo(arena+hblkhd)
          5299 MiB available memory on the node where the printing process lives
------------------
     ethr =  1.00E-02,  avg # of iterations =  6.6

     negative rho (up, down):  7.841E-05 0.000E+00

     total cpu time spent up to now is       14.5 secs

     total energy              =    -504.13974891 Ry
     estimated scf accuracy    <       0.65905656 Ry

     iteration #  2     ecut=    50.00 Ry     beta= 0.40
     Davidson diagonalization with overlap

---- Real-time Memory Report at c_bands before calling an iterative solver
           697 MiB given to the printing process from OS
             0 MiB allocation reported by mallinfo(arena+hblkhd)
          5277 MiB available memory on the node where the printing process lives
------------------
     ethr =  2.44E-03,  avg # of iterations =  4.2

     negative rho (up, down):  6.864E-05 0.000E+00

     total cpu time spent up to now is       31.0 secs

     total energy              =    -504.18165473 Ry
     estimated scf accuracy    <       0.60083430 Ry

     iteration #  3     ecut=    50.00 Ry     beta= 0.40
     Davidson diagonalization with overlap

---- Real-time Memory Report at c_bands before calling an iterative solver
           703 MiB given to the printing process from OS
             0 MiB allocation reported by mallinfo(arena+hblkhd)
          5174 MiB available memory on the node where the printing process lives
------------------
     ethr =  2.23E-03,  avg # of iterations =  3.2

     negative rho (up, down):  9.252E-05 0.000E+00

     total cpu time spent up to now is       44.4 secs

     total energy              =    -504.32937090 Ry
     estimated scf accuracy    <       0.09630767 Ry

     iteration #  4     ecut=    50.00 Ry     beta= 0.40
     Davidson diagonalization with overlap

---- Real-time Memory Report at c_bands before calling an iterative solver
           705 MiB given to the printing process from OS
             0 MiB allocation reported by mallinfo(arena+hblkhd)
          5046 MiB available memory on the node where the printing process lives
------------------
     ethr =  3.57E-04,  avg # of iterations =  4.0

     negative rho (up, down):  1.221E-04 0.000E+00

     total cpu time spent up to now is       53.5 secs

     total energy              =    -504.32181044 Ry
     estimated scf accuracy    <       0.02415943 Ry

     iteration #  5     ecut=    50.00 Ry     beta= 0.40
     Davidson diagonalization with overlap

---- Real-time Memory Report at c_bands before calling an iterative solver
           708 MiB given to the printing process from OS
             0 MiB allocation reported by mallinfo(arena+hblkhd)
          5044 MiB available memory on the node where the printing process lives
------------------
     ethr =  8.95E-05,  avg # of iterations =  5.1

     negative rho (up, down):  1.318E-04 0.000E+00

     total cpu time spent up to now is       67.0 secs

     total energy              =    -504.32770085 Ry
     estimated scf accuracy    <       0.00603488 Ry

     iteration #  6     ecut=    50.00 Ry     beta= 0.40
     Davidson diagonalization with overlap

---- Real-time Memory Report at c_bands before calling an iterative solver
           710 MiB given to the printing process from OS
             0 MiB allocation reported by mallinfo(arena+hblkhd)
          5041 MiB available memory on the node where the printing process lives
------------------
     ethr =  2.24E-05,  avg # of iterations =  3.6

     negative rho (up, down):  1.402E-04 0.000E+00

     total cpu time spent up to now is       84.0 secs

     total energy              =    -504.32861523 Ry
     estimated scf accuracy    <       0.00017321 Ry

     iteration #  7     ecut=    50.00 Ry     beta= 0.40
     Davidson diagonalization with overlap

---- Real-time Memory Report at c_bands before calling an iterative solver
           712 MiB given to the printing process from OS
             0 MiB allocation reported by mallinfo(arena+hblkhd)
          5040 MiB available memory on the node where the printing process lives
------------------
     ethr =  6.42E-07,  avg # of iterations =  5.3

     negative rho (up, down):  1.451E-04 0.000E+00

     total cpu time spent up to now is       94.5 secs

     total energy              =    -504.32863194 Ry
     estimated scf accuracy    <       0.00006212 Ry

     iteration #  8     ecut=    50.00 Ry     beta= 0.40
     Davidson diagonalization with overlap

---- Real-time Memory Report at c_bands before calling an iterative solver
           714 MiB given to the printing process from OS
             0 MiB allocation reported by mallinfo(arena+hblkhd)
          5035 MiB available memory on the node where the printing process lives
------------------
     ethr =  2.30E-07,  avg # of iterations =  1.2

     negative rho (up, down):  1.481E-04 0.000E+00

     total cpu time spent up to now is      102.5 secs

     total energy              =    -504.32861696 Ry
     estimated scf accuracy    <       0.00004195 Ry

     iteration #  9     ecut=    50.00 Ry     beta= 0.40
     Davidson diagonalization with overlap

---- Real-time Memory Report at c_bands before calling an iterative solver
           715 MiB given to the printing process from OS
             0 MiB allocation reported by mallinfo(arena+hblkhd)
          5034 MiB available memory on the node where the printing process lives
------------------
     ethr =  1.55E-07,  avg # of iterations =  2.0

     negative rho (up, down):  1.497E-04 0.000E+00

     total cpu time spent up to now is      111.7 secs

     total energy              =    -504.32862674 Ry
     estimated scf accuracy    <       0.00000201 Ry

     iteration # 10     ecut=    50.00 Ry     beta= 0.40
     Davidson diagonalization with overlap

---- Real-time Memory Report at c_bands before calling an iterative solver
           717 MiB given to the printing process from OS
             0 MiB allocation reported by mallinfo(arena+hblkhd)
          5033 MiB available memory on the node where the printing process lives
------------------
     ethr =  7.44E-09,  avg # of iterations =  1.8

     negative rho (up, down):  1.507E-04 0.000E+00

     total cpu time spent up to now is      120.1 secs

     total energy              =    -504.32862648 Ry
     estimated scf accuracy    <       0.00000109 Ry

     iteration # 11     ecut=    50.00 Ry     beta= 0.40
     Davidson diagonalization with overlap

---- Real-time Memory Report at c_bands before calling an iterative solver
           717 MiB given to the printing process from OS
             0 MiB allocation reported by mallinfo(arena+hblkhd)
          5034 MiB available memory on the node where the printing process lives
------------------
     ethr =  4.05E-09,  avg # of iterations =  1.9

     negative rho (up, down):  1.512E-04 0.000E+00

     total cpu time spent up to now is      128.6 secs

     total energy              =    -504.32862667 Ry
     estimated scf accuracy    <       0.00000003 Ry

     iteration # 12     ecut=    50.00 Ry     beta= 0.40
     Davidson diagonalization with overlap

---- Real-time Memory Report at c_bands before calling an iterative solver
           718 MiB given to the printing process from OS
             0 MiB allocation reported by mallinfo(arena+hblkhd)
          5188 MiB available memory on the node where the printing process lives
------------------
     ethr =  1.14E-10,  avg # of iterations =  2.0

     negative rho (up, down):  1.520E-04 0.000E+00

     total cpu time spent up to now is      137.6 secs

     End of self-consistent calculation

          k = 0.0000 0.0000 0.0000 (  7831 PWs)   bands (ev):

  -127.7031 -81.8870 -81.8870 -81.8314 -21.7175 -10.8279  -9.2864  -8.5382
    -8.4476  -8.4476  -8.3023  -5.2129  -3.0926  -3.0926  -0.2031   1.1818
     1.5805   1.8075

     occupation numbers 
     1.0000   1.0000   1.0000   1.0000   1.0000   1.0000   1.0000   1.0000
     1.0000   1.0000   1.0000   1.0000   1.0000   1.0000   0.0000   0.0000
     0.0000   0.0000

          k = 0.0000 0.0833 0.0000 (  7841 PWs)   bands (ev):

  -127.7030 -81.8881 -81.8869 -81.8313 -21.6787 -10.7453  -9.2598  -8.5636
    -8.4546  -8.4433  -8.3248  -5.1139  -3.3936  -3.0656  -0.0194   1.3411
     1.7302   1.9492

     occupation numbers 
     1.0000   1.0000   1.0000   1.0000   1.0000   1.0000   1.0000   1.0000
     1.0000   1.0000   1.0000   1.0000   1.0000   1.0000   0.0000   0.0000
     0.0000   0.0000

          k = 0.0000 0.1667 0.0000 (  7857 PWs)   bands (ev):

  -127.7028 -81.8912 -81.8867 -81.8311 -21.5706 -10.5153  -9.1927  -8.6333
    -8.4551  -8.4402  -8.3769  -4.9640  -3.9408  -2.9923   0.4470   1.7972
     2.1612   2.3748

     occupation numbers 
     1.0000   1.0000   1.0000   1.0000   1.0000   1.0000   1.0000   1.0000
     1.0000   1.0000   1.0000   1.0000   1.0000   1.0000   0.0000   0.0000
     0.0000   0.0000

          k = 0.0000 0.2500 0.0000 (  7881 PWs)   bands (ev):

  -127.7025 -81.8955 -81.8864 -81.8308 -21.4172 -10.1935  -9.1376  -8.6667
    -8.4938  -8.4496  -8.3879  -5.4040  -3.7877  -2.8928   1.1162   2.5262
     2.8405   3.0825

     occupation numbers 
     1.0000   1.0000   1.0000   1.0000   1.0000   1.0000   1.0000   1.0000
     1.0000   1.0000   1.0000   1.0000   1.0000   1.0000   0.0000   0.0000
     0.0000   0.0000

          k = 0.0000 0.3333 0.0000 (  7882 PWs)   bands (ev):

  -127.7022 -81.8998 -81.8862 -81.8304 -21.2566  -9.8703  -9.1652  -8.5765
    -8.5733  -8.4347  -8.3706  -6.1147  -3.0509  -2.7937   1.8365   3.2910
     3.5870   3.7824

     occupation numbers 
     1.0000   1.0000   1.0000   1.0000   1.0000   1.0000   1.0000   1.0000
     1.0000   1.0000   1.0000   1.0000   1.0000   1.0000   0.0000   0.0000
     0.0000   0.0000

          k = 0.0000 0.4167 0.0000 (  7900 PWs)   bands (ev):

  -127.7020 -81.9029 -81.8859 -81.8302 -21.1339  -9.6353  -9.2388  -8.6322
    -8.5222  -8.3557  -8.3012  -6.6581  -2.7213  -2.0488   1.0606   3.4238
     4.7235   4.8986

     occupation numbers 
     1.0000   1.0000   1.0000   1.0000   1.0000   1.0000   1.0000   1.0000
     1.0000   1.0000   1.0000   1.0000   1.0002   0.4272   0.0000   0.0000
     0.0000   0.0000

          k = 0.0000-0.5000 0.0000 (  7920 PWs)   bands (ev):

  -127.7019 -81.9041 -81.8859 -81.8301 -21.0879  -9.5432  -9.2825  -8.6536
    -8.5261  -8.3501  -8.1915  -6.8735  -2.6948  -1.1842  -0.0316   4.3903
     4.8850   5.9119

     occupation numbers 
     1.0000   1.0000   1.0000   1.0000   1.0000   1.0000   1.0000   1.0000
     1.0000   1.0000   1.0000   1.0000   1.0004   0.0000   0.0000   0.0000
     0.0000   0.0000

          k = 0.0833 0.0833 0.0000 (  7870 PWs)   bands (ev):

  -127.7029 -81.8881 -81.8880 -81.8313 -21.6404 -10.6653  -9.2315  -8.5779
    -8.4787  -8.4287  -8.3488  -5.0295  -3.4285  -3.2693   0.1520   1.4973
     1.8778   2.0911

     occupation numbers 
     1.0000   1.0000   1.0000   1.0000   1.0000   1.0000   1.0000   1.0000
     1.0000   1.0000   1.0000   1.0000   1.0000   1.0000   0.0000   0.0000
     0.0000   0.0000

          k = 0.0833 0.1667 0.0000 (  7854 PWs)   bands (ev):

  -127.7027 -81.8912 -81.8878 -81.8310 -21.5333 -10.4438  -9.1595  -8.6304
    -8.5042  -8.4146  -8.3959  -4.9324  -3.8552  -3.2268   0.6023   1.9482
     2.3031   2.5175

     occupation numbers 
     1.0000   1.0000   1.0000   1.0000   1.0000   1.0000   1.0000   1.0000
     1.0000   1.0000   1.0000   1.0000   1.0000   1.0000   0.0000   0.0000
     0.0000   0.0000

          k = 0.0833 0.2500 0.0000 (  7876 PWs)   bands (ev):

  -127.7024 -81.8954 -81.8876 -81.8307 -21.3815 -10.1387  -9.0974  -8.6653
    -8.5425  -8.4473  -8.3695  -5.3761  -3.7215  -3.0708   1.2643   2.6738
     2.9748   3.2265

     occupation numbers 
     1.0000   1.0000   1.0000   1.0000   1.0000   1.0000   1.0000   1.0000
     1.0000   1.0000   1.0000   1.0000   1.0000   1.0000   0.0000   0.0000
     0.0000   0.0000

          k = 0.0833 0.3333 0.0000 (  7864 PWs)   bands (ev):

  -127.7021 -81.8996 -81.8873 -81.8303 -21.2227  -9.8400  -9.1167  -8.6739
    -8.5402  -8.4392  -8.3110  -6.0599  -3.2235  -2.7340   1.9950   3.4128
     3.7115   3.9168

     occupation numbers 
     1.0000   1.0000   1.0000   1.0000   1.0000   1.0000   1.0000   1.0000
     1.0000   1.0000   1.0000   1.0000   1.0000   1.0002   0.0000   0.0000
     0.0000   0.0000

          k = 0.0833 0.4167 0.0000 (  7894 PWs)   bands (ev):

  -127.7019 -81.9028 -81.8871 -81.8301 -21.1014  -9.6315  -9.1760  -8.7261
    -8.5292  -8.3917  -8.1626  -6.5874  -3.0059  -1.8828   1.2171   3.5368
     4.8488   5.0366

     occupation numbers 
     1.0000   1.0000   1.0000   1.0000   1.0000   1.0000   1.0000   1.0000
     1.0000   1.0000   1.0000   1.0000   1.0000   0.0592   0.0000   0.0000
     0.0000   0.0000

          k = 0.0833-0.5000 0.0000 (  7904 PWs)   bands (ev):

  -127.7019 -81.9040 -81.8870 -81.8300 -21.0559  -9.5561  -9.2064  -8.7496
    -8.5364  -8.3766  -8.0540  -6.7978  -2.9544  -1.0714   0.1487   4.5066
     5.0274   5.9752

     occupation numbers 
     1.0000   1.0000   1.0000   1.0000   1.0000   1.0000   1.0000   1.0000
     1.0000   1.0000   1.0000   1.0000   1.0000   0.0000   0.0000   0.0000
     0.0000   0.0000

          k = 0.1667 0.1667 0.0000 (  7864 PWs)   bands (ev):

  -127.7025 -81.8910 -81.8909 -81.8308 -21.4294 -10.2513  -9.0712  -8.6305
    -8.5650  -8.4930  -8.3452  -4.9497  -3.7308  -3.5491   1.0306   2.3901
     2.7139   2.9462

     occupation numbers 
     1.0000   1.0000   1.0000   1.0000   1.0000   1.0000   1.0000   1.0000
     1.0000   1.0000   1.0000   1.0000   1.0000   1.0000   0.0000   0.0000
     0.0000   0.0000

          k = 0.1667 0.2500 0.0000 (  7859 PWs)   bands (ev):

  -127.7022 -81.8952 -81.8906 -81.8304 -21.2822 -10.0024  -8.9819  -8.6699
    -8.5895  -8.5459  -8.2696  -5.3226  -3.8861  -3.1033   1.6845   3.1089
     3.3658   3.6580

     occupation numbers 
     1.0000   1.0000   1.0000   1.0000   1.0000   1.0000   1.0000   1.0000
     1.0000   1.0000   1.0000   1.0000   1.0000   1.0000   0.0000   0.0000
     0.0000   0.0000

          k = 0.1667 0.3333 0.0000 (  7846 PWs)   bands (ev):

  -127.7019 -81.8994 -81.8903 -81.8301 -21.1283  -9.7826  -8.9725  -8.7611
    -8.5779  -8.4904  -8.1317  -5.9156  -3.7692  -2.4158   2.4444   3.7374
     4.0979   4.3067

     occupation numbers 
     1.0000   1.0000   1.0000   1.0000   1.0000   1.0000   1.0000   1.0000
     1.0000   1.0000   1.0000   1.0000   1.0000   1.0528   0.0000   0.0000
     0.0000   0.0000

          k = 0.1667 0.4167 0.0000 (  7870 PWs)   bands (ev):

  -127.7017 -81.9025 -81.8901 -81.8299 -21.0110  -9.6477  -8.9964  -8.8436
    -8.5906  -8.4178  -7.9189  -6.3955  -3.6278  -1.5025   1.6375   3.8718
     5.1993   5.4523

     occupation numbers 
     1.0000   1.0000   1.0000   1.0000   1.0000   1.0000   1.0000   1.0000
     1.0000   1.0000   1.0000   1.0000   1.0000   0.0000   0.0000   0.0000
     0.0000   0.0000

          k = 0.1667-0.5000 0.0000 (  7874 PWs)   bands (ev):

  -127.7017 -81.9037 -81.8900 -81.8298 -20.9670  -9.6045  -9.0039  -8.8797
    -8.5981  -8.3960  -7.7973  -6.5900  -3.5708  -0.7364   0.5963   4.8471
     5.4494   6.1047

     occupation numbers 
     1.0000   1.0000   1.0000   1.0000   1.0000   1.0000   1.0000   1.0000
     1.0000   1.0000   1.0000   1.0000   1.0000   0.0000   0.0000   0.0000
     0.0000   0.0000

          k = 0.2500 0.2500 0.0000 (  7842 PWs)   bands (ev):

  -127.7019 -81.8949 -81.8947 -81.8301 -21.1417  -9.8544  -8.8425  -8.7028
    -8.6650  -8.5652  -8.1224  -5.3835  -4.3244  -2.6084   2.3409   3.8156
     3.9908   4.3737

     occupation numbers 
     1.0000   1.0000   1.0000   1.0000   1.0000   1.0000   1.0000   1.0000
     1.0000   1.0000   1.0000   1.0000   1.0000   1.0030   0.0000   0.0000
     0.0000   0.0000

          k = 0.2500 0.3333 0.0000 (  7834 PWs)   bands (ev):

  -127.7016 -81.8990 -81.8945 -81.8298 -20.9950  -9.7532  -8.8470  -8.7794
    -8.6411  -8.4812  -7.9040  -5.7347  -4.4271  -1.8690   3.1464   4.1567
     4.7332   4.9222

     occupation numbers 
     1.0000   1.0000   1.0000   1.0000   1.0000   1.0000   1.0000   1.0000
     1.0000   1.0000   1.0000   1.0000   1.0000   0.0475   0.0000   0.0000
     0.0000   0.0000

          k = 0.2500 0.4167 0.0000 (  7841 PWs)   bands (ev):

  -127.7014 -81.9022 -81.8942 -81.8295 -20.8835  -9.7056  -8.9225  -8.8106
    -8.6249  -8.3952  -7.6538  -6.1224  -4.3394  -0.9376   2.2370   4.4142
     5.6512   6.1478

     occupation numbers 
     1.0000   1.0000   1.0000   1.0000   1.0000   1.0000   1.0000   1.0000
     1.0000   1.0000   1.0000   1.0000   1.0000   0.0000   0.0000   0.0000
     0.0000   0.0000

          k = 0.2500-0.5000 0.0000 (  7850 PWs)   bands (ev):

  -127.7014 -81.9033 -81.8942 -81.8294 -20.8416  -9.6929  -8.9515  -8.8247
    -8.6207  -8.3663  -7.5307  -6.2863  -4.2882  -0.1870   1.2050   5.3873
     5.9865   6.2276

     occupation numbers 
     1.0000   1.0000   1.0000   1.0000   1.0000   1.0000   1.0000   1.0000
     1.0000   1.0000   1.0000   1.0000   1.0000   0.0000   0.0000   0.0000
     0.0000   0.0000

          k = 0.3333 0.3333 0.0000 (  7832 PWs)   bands (ev):

  -127.7014 -81.8988 -81.8986 -81.8295 -20.8562  -9.7616  -8.8706  -8.8619
    -8.4678  -8.4620  -7.6407  -5.6490  -4.8997  -1.1172   4.0659   4.2277
     5.1089   5.8197

     occupation numbers 
     1.0000   1.0000   1.0000   1.0000   1.0000   1.0000   1.0000   1.0000
     1.0000   1.0000   1.0000   1.0000   1.0000   0.0000   0.0000   0.0000
     0.0000   0.0000

          k = 0.3333 0.4167 0.0000 (  7838 PWs)   bands (ev):

  -127.7012 -81.9018 -81.8984 -81.8292 -20.7508  -9.7824  -8.9506  -8.8861
    -8.4484  -8.3244  -7.3997  -5.8182  -4.9617  -0.1810   2.9068   5.0984
     5.3983   6.5683

     occupation numbers 
     1.0000   1.0000   1.0000   1.0000   1.0000   1.0000   1.0000   1.0000
     1.0000   1.0000   1.0000   1.0000   1.0000   0.0000   0.0000   0.0000
     0.0000   0.0000

          k = 0.3333-0.5000 0.0000 (  7856 PWs)   bands (ev):

  -127.7011 -81.9029 -81.8984 -81.8291 -20.7113  -9.7921  -8.9808  -8.8955
    -8.4428  -8.2767  -7.2953  -5.9348  -4.9217   0.5691   1.9098   5.3977
     6.0641   6.8892

     occupation numbers 
     1.0000   1.0000   1.0000   1.0000   1.0000   1.0000   1.0000   1.0000
     1.0000   1.0000   1.0000   1.0000   1.0000   0.0000   0.0000   0.0000
     0.0000   0.0000

          k = 0.4167 0.4167 0.0000 (  7842 PWs)   bands (ev):

  -127.7010 -81.9016 -81.9015 -81.8290 -20.6501  -9.8431  -8.9707  -8.9623
    -8.3869  -8.1829  -7.2028  -5.6044  -5.3349   0.7544   3.2330   4.1845
     5.9614   6.6728

     occupation numbers 
     1.0000   1.0000   1.0000   1.0000   1.0000   1.0000   1.0000   1.0000
     1.0000   1.0000   1.0000   1.0000   1.0000   0.0000   0.0000   0.0000
     0.0000   0.0000

          k = 0.4167-0.5000 0.0000 (  7830 PWs)   bands (ev):

  -127.7009 -81.9026 -81.9014 -81.8289 -20.6125  -9.8657  -8.9958  -8.9733
    -8.3748  -8.1226  -7.1254  -5.6300  -5.3518   1.5278   2.5784   4.0913
     6.5369   6.6373

     occupation numbers 
     1.0000   1.0000   1.0000   1.0000   1.0000   1.0000   1.0000   1.0000
     1.0000   1.0000   1.0000   1.0000   1.0000   0.0000   0.0000   0.0000
     0.0000   0.0000

          k =-0.5000-0.5000 0.0000 (  7904 PWs)   bands (ev):

  -127.7008 -81.9026 -81.9026 -81.8289 -20.5755  -9.8924  -9.0019  -9.0019
    -8.3604  -8.0565  -7.0610  -5.5051  -5.5051   2.5416   2.8906   2.8906
     6.3583   6.7247

     occupation numbers 
     1.0000   1.0000   1.0000   1.0000   1.0000   1.0000   1.0000   1.0000
     1.0000   1.0000   1.0000   1.0000   1.0000   0.0000   0.0000   0.0000
     0.0000   0.0000

     the Fermi energy is    -2.0411 ev

!    total energy              =    -504.32862667 Ry
     estimated scf accuracy    <          4.4E-09 Ry
     smearing contrib. (-TS)   =      -0.00012554 Ry
     internal energy E=F+TS    =    -504.32850113 Ry

     The total energy is F=E-TS. E is the sum of the following terms:
     one-electron contribution =   -2839.50349111 Ry
     hartree contribution      =    1418.78145003 Ry
     xc contribution           =     -50.32092627 Ry
     ewald contribution        =     976.22954356 Ry
     one-center paw contrib.   =      -9.51507734 Ry
      -> PAW hartree energy AE =      27.46383901 Ry
      -> PAW hartree energy PS =     -27.33507697 Ry
      -> PAW xc energy AE      =     -16.88386592 Ry
      -> PAW xc energy PS      =       7.24002654 Ry
      -> total E_H with PAW    =    1418.91021207 Ry
      -> total E_XC with PAW   =     -59.96476564 Ry

     convergence has been achieved in  12 iterations

     negative rho (up, down):  1.520E-04 0.000E+00

     Forces acting on atoms (cartesian axes, Ry/au):

     atom    1 type  2   force =     0.00000000    0.00000000    0.07154949
     atom    2 type  1   force =     0.00000000    0.00000000   -0.13387750
     atom    3 type  3   force =     0.00000000    0.00000000    0.06232801
     The non-local contrib.  to forces
     atom    1 type  2   force =     0.00000000    0.00000000   -0.16002736
     atom    2 type  1   force =     0.00000000    0.00000000    1.40134040
     atom    3 type  3   force =     0.00000000    0.00000000   -0.11686629
     The ionic contribution  to forces
     atom    1 type  2   force =    -0.00000000   -0.00000000  -53.06433787
     atom    2 type  1   force =     0.00000000    0.00000000   40.25429608
     atom    3 type  3   force =     0.00000000    0.00000000   12.81004179
     The local contribution  to forces
     atom    1 type  2   force =     0.00000000    0.00000000   53.29656078
     atom    2 type  1   force =     0.00000000    0.00000000  -41.77602879
     atom    3 type  3   force =    -0.00000000   -0.00000000  -12.63098583
     The core correction contribution to forces
     atom    1 type  2   force =     0.00000000    0.00000000    0.00000000
     atom    2 type  1   force =     0.00000000    0.00000000   -0.01351140
     atom    3 type  3   force =     0.00000000    0.00000000    0.00000000
     The Hubbard contrib.    to forces
     atom    1 type  2   force =     0.00000000    0.00000000    0.00000000
     atom    2 type  1   force =     0.00000000    0.00000000    0.00000000
     atom    3 type  3   force =     0.00000000    0.00000000    0.00000000
     The SCF correction term to forces
     atom    1 type  2   force =    -0.00000000   -0.00000000   -0.00078002
     atom    2 type  1   force =     0.00000000    0.00000000   -0.00010775
     atom    3 type  3   force =     0.00000000   -0.00000000    0.00000440

     Total force =     0.164095     Total SCF correction =     0.000787


     Computing stress (Cartesian axis) and pressure


     negative rho (up, down):  1.520E-04 0.000E+00
          total   stress  (Ry/bohr**3)                   (kbar)     P=        1.62
   0.00004599   0.00000000   0.00000000            6.77        0.00        0.00
   0.00000000   0.00004599   0.00000000            0.00        6.77        0.00
   0.00000000   0.00000000  -0.00005887            0.00        0.00       -8.66

     kinetic stress (kbar)   4407.86      0.00      0.00
                                0.00   4407.86      0.00
                                0.00      0.00   4191.48

     local   stress (kbar)-275234.73      0.00     -0.00
                                0.00-275234.73     -0.00
                               -0.00     -0.00 275465.85

     nonloc. stress (kbar)    -90.59      0.00      0.00
                                0.00    -90.59      0.00
                                0.00      0.00    -92.81

     hartree stress (kbar) 143749.69     -0.00      0.00
                               -0.00 143749.69      0.00
                                0.00      0.00-128940.31

     exc-cor stress (kbar)  -1747.48     -0.00     -0.00
                               -0.00  -1747.48     -0.00
                               -0.00     -0.00  -1746.75

     corecor stress (kbar)    -47.74     -0.00     -0.00
                               -0.00    -47.74      0.00
                               -0.00      0.00    -47.29

     ewald   stress (kbar) 128969.76      0.00      0.00
                                0.00 128969.76      0.00
                                0.00      0.00-148838.82

     hubbard stress (kbar)      0.00      0.00      0.00
                                0.00      0.00      0.00
                                0.00      0.00      0.00

     DFT-D   stress (kbar)      0.00      0.00      0.00
                                0.00      0.00      0.00
                                0.00      0.00      0.00

     XDM     stress (kbar)      0.00      0.00      0.00
                                0.00      0.00      0.00
                                0.00      0.00      0.00

     dft-nl  stress (kbar)      0.00      0.00      0.00
                                0.00      0.00      0.00
                                0.00      0.00      0.00

     TS-vdW  stress (kbar)      0.00      0.00      0.00
                                0.00      0.00      0.00
                                0.00      0.00      0.00

     MDB     stress (kbar)      0.00      0.00      0.00
                                0.00      0.00      0.00
                                0.00      0.00      0.00

     3D-RISM stress (kbar)      0.00      0.00      0.00
                                0.00      0.00      0.00
                                0.00      0.00      0.00


     Writing all to output data dir ./temp_cubic/aiida.save/ :
     XML data file, charge density, pseudopotentials, collected wavefunctions

     init_run     :     58.01s CPU      3.29s WALL (       1 calls)
     electrons    :   2687.70s CPU    134.14s WALL (       1 calls)
     forces       :     51.67s CPU      2.66s WALL (       1 calls)
     stress       :     34.65s CPU      4.20s WALL (       1 calls)

     Called by init_run:
     wfcinit      :     53.16s CPU      2.43s WALL (       1 calls)
     wfcinit:atom :      0.48s CPU      0.03s WALL (      28 calls)
     wfcinit:wfcr :     49.59s CPU      2.21s WALL (      28 calls)
     potinit      :      1.56s CPU      0.14s WALL (       1 calls)
     hinit0       :      1.35s CPU      0.27s WALL (       1 calls)

     Called by electrons:
     c_bands      :   2196.39s CPU    103.56s WALL (      12 calls)
     sum_band     :    445.07s CPU     24.06s WALL (      12 calls)
     v_of_rho     :     13.49s CPU      1.07s WALL (      13 calls)
     v_h          :      2.62s CPU      0.17s WALL (      13 calls)
     v_xc         :     12.32s CPU      1.03s WALL (      15 calls)
     newd         :     18.55s CPU      5.10s WALL (      13 calls)
     PAW_pot      :      6.67s CPU      0.32s WALL (      13 calls)
     mix_rho      :      4.95s CPU      0.25s WALL (      12 calls)

     Called by c_bands:
     init_us_2    :     24.82s CPU      1.64s WALL (     756 calls)
     cegterg      :   2162.38s CPU    101.59s WALL (     336 calls)

     Called by sum_band:
     sum_band:wei :      0.03s CPU      0.00s WALL (      12 calls)
     sum_band:loo :    434.50s CPU     18.42s WALL (      12 calls)
     sum_band:buf :      1.02s CPU      0.08s WALL (     336 calls)
     sum_band:ini :     11.22s CPU      0.69s WALL (     336 calls)
     sum_band:cal :     59.49s CPU      2.03s WALL (     336 calls)
     sum_band:bec :     17.58s CPU      0.80s WALL (     336 calls)
     addusdens    :      9.20s CPU      5.39s WALL (      12 calls)
                                        0.00s GPU  (      12 calls)
     addusd:skk   :      0.22s CPU      0.01s WALL (      36 calls)
                                        0.00s GPU  (      36 calls)

     Called by *egterg:
     cdiaghg      :      6.74s CPU      0.39s WALL (    1478 calls)
     cegterg:over :    104.04s CPU      5.36s WALL (    1142 calls)
     cegterg:upda :     55.52s CPU      4.60s WALL (    1142 calls)
     cegterg:last :     46.99s CPU      6.49s WALL (     649 calls)
     h_psi        :   1793.44s CPU     76.41s WALL (    1506 calls)
     s_psi        :     88.63s CPU      4.82s WALL (    1506 calls)
     g_psi        :     17.42s CPU      0.89s WALL (    1142 calls)

     Called by h_psi:
     h_psi:calbec :    137.39s CPU      5.02s WALL (    1506 calls)
     vloc_psi     :   1520.06s CPU     65.22s WALL (    1506 calls)
     add_vuspsi   :    105.17s CPU      4.82s WALL (    1506 calls)

     General routines
     calbec       :    219.82s CPU      7.90s WALL (    1982 calls)
     fft          :     13.76s CPU      0.98s WALL (     192 calls)
     ffts         :      0.96s CPU      0.05s WALL (      25 calls)
     fftw         :    848.75s CPU     36.67s WALL (   35796 calls)
     interpolate  :      3.20s CPU      0.13s WALL (      13 calls)

     Parallel routines

     PAW routines
     PAW_pot      :      6.67s CPU      0.32s WALL (      13 calls)
     PAW_symme    :      0.00s CPU      0.00s WALL (      25 calls)

     PWSCF        :  47m22.24s CPU   2m25.61s WALL


   This run was terminated on:  21: 2:46  14Jun2024            

=------------------------------------------------------------------------------=
   JOB DONE.
=------------------------------------------------------------------------------=
